
     Program PWSCF v.7.4.1 starts on  5Sep2025 at 16:53:52 

     This program is part of the open-source Quantum ESPRESSO suite
     for quantum simulation of materials; please cite
         "P. Giannozzi et al., J. Phys.:Condens. Matter 21 395502 (2009);
         "P. Giannozzi et al., J. Phys.:Condens. Matter 29 465901 (2017);
         "P. Giannozzi et al., J. Chem. Phys. 152 154105 (2020);
          URL http://www.quantum-espresso.org", 
     in publications or presentations arising from this work. More details at
     http://www.quantum-espresso.org/quote

     Parallel version (MPI), running on     8 processors

     MPI processes distributed on     1 nodes
     48908 MiB available memory on the printing compute node when the environment starts

     Reading input from PTFE_IV_rect_P1_twochains-vcrelax.in

     Current dimensions of program PWSCF are:
     Max number of different atomic species (ntypx) = 10
     Max number of k-points (npk) =  40000
     Max angular momentum in pseudopotentials (lmaxx) =  4

     File ./PTFE/PTFE_IV_rect_P1_twochains-vcrelax.update deleted, as requested

     File ./PTFE/PTFE_IV_rect_P1_twochains-vcrelax.bfgs deleted, as requested
     file C.pbe-n-kjpaw_psl.1.0.0.UPF: wavefunction(s)  2S 2P renormalized
     file F.pbe-n-kjpaw_psl.1.0.0.UPF: wavefunction(s)  2S 2P renormalized
     Found identity + ( -0.5000 -0.5000  0.0000) symmetry
     This is a supercell, fractional translations are disabled
     Message from routine setup:
     using ibrav=0 with symmetry is DISCOURAGED, use correct ibrav instead

     R & G space division:  proc/nbgrp/npool/nimage =       8
     Subspace diagonalization in iterative solution of the eigenvalue problem:
     one sub-group per band group will be used
     custom distributed-memory algorithm (size of sub-group:  2*  2 procs)


     Parallelization info
     --------------------
     sticks:   dense  smooth     PW     G-vecs:    dense   smooth      PW
     Min         597     397    109                80823    43971    6345
     Max         599     398    110                80828    43976    6350
     Sum        4785    3179    875               646607   351787   50785

     Using Slab Decomposition



     bravais-lattice index     =            0
     lattice parameter (alat)  =      10.7431  a.u.
     unit-cell volume          =    7366.3573 (a.u.)^3
     number of atoms/cell      =           90
     number of atomic types    =            2
     number of electrons       =       540.00
     number of Kohn-Sham states=          270
     kinetic-energy cutoff     =      50.0000  Ry
     charge density cutoff     =     300.0000  Ry
     scf convergence threshold =      1.0E-06
     mixing beta               =       0.5000
     number of iterations used =            8  plain     mixing
     energy convergence thresh.=      1.0E-05
     force convergence thresh. =      1.0E-04
     press convergence thresh. =      1.0E-01
     Exchange-correlation= SLA  PW   PBX  PBC
                           (   1   4   3   4   0   0   0)
     nstep                     =           50


     celldm(1)=  10.743093  celldm(2)=   0.000000  celldm(3)=   0.000000
     celldm(4)=   0.000000  celldm(5)=   0.000000  celldm(6)=   0.000000

     crystal axes: (cart. coord. in units of alat)
               a(1) = (   1.000000   0.000000   0.000000 )  
               a(2) = (   0.000000   1.732051   0.000000 )  
               a(3) = (   0.000000   0.000000   3.430079 )  

     reciprocal axes: (cart. coord. in units 2 pi/alat)
               b(1) = (  1.000000  0.000000  0.000000 )  
               b(2) = (  0.000000  0.577350  0.000000 )  
               b(3) = (  0.000000  0.000000  0.291538 )  


     PseudoPot. # 1 for C  read from file:
     ./pseudo/C.pbe-n-kjpaw_psl.1.0.0.UPF
     MD5 check sum: 5d2aebdfa2cae82b50a7e79e9516da0f
     Pseudo is Projector augmented-wave + core cor, Zval =  4.0
     Generated using "atomic" code by A. Dal Corso  v.5.1
     Shape of augmentation charge: PSQ
     Using radial grid of 1073 points,  4 beta functions with: 
                l(1) =   0
                l(2) =   0
                l(3) =   1
                l(4) =   1
     Q(r) pseudized with 0 coefficients 


     PseudoPot. # 2 for F  read from file:
     ./pseudo/F.pbe-n-kjpaw_psl.1.0.0.UPF
     MD5 check sum: 66d718ea72839a4268ab2a9540e8cdd4
     Pseudo is Projector augmented-wave + core cor, Zval =  7.0
     Generated using &quot;atomic&quot; code by A. Dal Corso  v.6.3
     Shape of augmentation charge: PSQ
     Using radial grid of 1105 points,  4 beta functions with: 
                l(1) =   0
                l(2) =   0
                l(3) =   1
                l(4) =   1
     Q(r) pseudized with 0 coefficients 


     atomic species   valence    mass     pseudopotential
     C                 4.00    12.01070     C ( 1.00)
     F                 7.00    18.99840     F ( 1.00)

      2 Sym. Ops. (no inversion) found



   Cartesian axes

     site n.     atom                  positions (alat units)
         1        F      tau(   1) = (   0.2675330   0.1359071   3.4210580  )
         2        F      tau(   2) = (   0.2675330   1.5961437   0.0090211  )
         3        F      tau(   3) = (   0.7100570   1.6547373   0.2196485  )
         4        F      tau(   4) = (   0.7665700   0.1885597   0.2376942  )
         5        F      tau(   5) = (   0.2996820   0.0153408   0.4483216  )
         6        F      tau(   6) = (   0.1891250   1.4990796   0.4663673  )
         7        F      tau(   7) = (   0.7036780   0.0473006   0.6769947  )
         8        F      tau(   8) = (   0.8634450   0.2672017   0.6950369  )
         9        F      tau(   9) = (   0.2800130   1.6241735   0.9056644  )
        10        F      tau(  10) = (   0.0780160   1.4422960   0.9237100  )
        11        F      tau(  11) = (   0.7485350   0.1637377   1.1343375  )
        12        F      tau(  12) = (   0.9839320   0.2996431   1.1523831  )
        13        F      tau(  13) = (   0.2119270   1.5196096   1.3630106  )
        14        F      tau(  14) = (   0.9534180   1.4356138   1.3810528  )
        15        F      tau(  15) = (   0.8368730   0.2518610   1.5916802  )
        16        F      tau(  16) = (   0.1071970   0.2802735   1.6097259  )
        17        F      tau(  17) = (   0.1071970   1.4517773   1.8203533  )
        18        F      tau(  18) = (   0.8368730   1.4801898   1.8383989  )
        19        F      tau(  19) = (   0.9534180   0.2964370   2.0490264  )
        20        F      tau(  20) = (   0.2119270   0.2124412   2.0670686  )
        21        F      tau(  21) = (   0.9839320   1.4324077   2.2776960  )
        22        F      tau(  22) = (   0.7485350   1.5683131   2.2957417  )
        23        F      tau(  23) = (   0.0780160   0.2897548   2.5063691  )
        24        F      tau(  24) = (   0.2800130   0.1078773   2.5244148  )
        25        F      tau(  25) = (   0.8634450   1.4648491   2.7350422  )
        26        F      tau(  26) = (   0.7036780   1.6847502   2.7530844  )
        27        F      tau(  27) = (   0.1891250   0.2329712   2.9637119  )
        28        F      tau(  28) = (   0.2996820   1.7167100   2.9817575  )
        29        F      tau(  29) = (   0.7665700   1.5434911   3.1923850  )
        30        F      tau(  30) = (   0.7100570   0.0773136   3.2104306  )
        31        F      tau(  31) = (   0.7675330   1.0019325   3.4210580  )
        32        F      tau(  32) = (   0.7675330   0.7301183   0.0090211  )
        33        F      tau(  33) = (   0.2100570   0.7887119   0.2196485  )
        34        F      tau(  34) = (   0.2665700   1.0545851   0.2376942  )
        35        F      tau(  35) = (   0.7996820   0.8813662   0.4483216  )
        36        F      tau(  36) = (   0.6891250   0.6330542   0.4663673  )
        37        F      tau(  37) = (   0.2036780   0.9133260   0.6769947  )
        38        F      tau(  38) = (   0.3634450   1.1332271   0.6950369  )
        39        F      tau(  39) = (   0.7800130   0.7581481   0.9056644  )
        40        F      tau(  40) = (   0.5780160   0.5762706   0.9237100  )
        41        F      tau(  41) = (   0.2485350   1.0297631   1.1343375  )
        42        F      tau(  42) = (   0.4839320   1.1656685   1.1523831  )
        43        F      tau(  43) = (   0.7119270   0.6535842   1.3630106  )
        44        F      tau(  44) = (   0.4534180   0.5695884   1.3810528  )
        45        F      tau(  45) = (   0.3368730   1.1178864   1.5916802  )
        46        F      tau(  46) = (   0.6071970   1.1462989   1.6097259  )
        47        F      tau(  47) = (   0.6071970   0.5857519   1.8203533  )
        48        F      tau(  48) = (   0.3368730   0.6141644   1.8383989  )
        49        F      tau(  49) = (   0.4534180   1.1624624   2.0490264  )
        50        F      tau(  50) = (   0.7119270   1.0784666   2.0670686  )
        51        F      tau(  51) = (   0.4839320   0.5663823   2.2776960  )
        52        F      tau(  52) = (   0.2485350   0.7022877   2.2957417  )
        53        F      tau(  53) = (   0.5780160   1.1557802   2.5063691  )
        54        F      tau(  54) = (   0.7800130   0.9739027   2.5244148  )
        55        F      tau(  55) = (   0.3634450   0.5988237   2.7350422  )
        56        F      tau(  56) = (   0.2036780   0.8187248   2.7530844  )
        57        F      tau(  57) = (   0.6891250   1.0989966   2.9637119  )
        58        F      tau(  58) = (   0.7996820   0.8506846   2.9817575  )
        59        F      tau(  59) = (   0.2665700   0.6774657   3.1923850  )
        60        F      tau(  60) = (   0.2100570   0.9433390   3.2104306  )
        61        C      tau(  61) = (   0.0730110   0.0000000   0.0000000  )
        62        C      tau(  62) = (   0.9285840   0.0151797   0.2286731  )
        63        C      tau(  63) = (   0.0666990   1.7023548   0.4573427  )
        64        C      tau(  64) = (   0.9409330   0.0429150   0.6860158  )
        65        C      tau(  65) = (   0.0488540   1.6777926   0.9146889  )
        66        C      tau(  66) = (   0.9634940   0.0632302   1.1433597  )
        67        C      tau(  67) = (   0.0225620   1.6626129   1.3720317  )
        68        C      tau(  68) = (   0.9923680   0.0726110   1.6007047  )
        69        C      tau(  69) = (   0.9923680   1.6594398   1.8293744  )
        70        C      tau(  70) = (   0.0225620   0.0694379   2.0580475  )
        71        C      tau(  71) = (   0.9634940   1.6688206   2.2867194  )
        72        C      tau(  72) = (   0.0488540   0.0542582   2.5153902  )
        73        C      tau(  73) = (   0.9409330   1.6891358   2.7440633  )
        74        C      tau(  74) = (   0.0666990   0.0296960   2.9727364  )
        75        C      tau(  75) = (   0.9285840   1.7168711   3.2014061  )
        76        C      tau(  76) = (   0.5730110   0.8660254   0.0000000  )
        77        C      tau(  77) = (   0.4285840   0.8812051   0.2286731  )
        78        C      tau(  78) = (   0.5666990   0.8363294   0.4573427  )
        79        C      tau(  79) = (   0.4409330   0.9089404   0.6860158  )
        80        C      tau(  80) = (   0.5488540   0.8117672   0.9146889  )
        81        C      tau(  81) = (   0.4634940   0.9292557   1.1433597  )
        82        C      tau(  82) = (   0.5225620   0.7965875   1.3720317  )
        83        C      tau(  83) = (   0.4923680   0.9386364   1.6007047  )
        84        C      tau(  84) = (   0.4923680   0.7934144   1.8293744  )
        85        C      tau(  85) = (   0.5225620   0.9354633   2.0580475  )
        86        C      tau(  86) = (   0.4634940   0.8027952   2.2867194  )
        87        C      tau(  87) = (   0.5488540   0.9202836   2.5153902  )
        88        C      tau(  88) = (   0.4409330   0.8231104   2.7440633  )
        89        C      tau(  89) = (   0.5666990   0.8957214   2.9727364  )
        90        C      tau(  90) = (   0.4285840   0.8508457   3.2014061  )

     --------------------------------------------
     DFT-D3 Dispersion Correction (3-body terms):
     --------------------------------------------
       Reference C6 values for interpolation: 

         atom   Coordination number   C6
         C          0.000            98.23
         C          0.987            86.49
         C          1.998            58.72
         C          2.999            51.56
         C          3.984            36.41
         F          0.000            19.38
         F          0.998            14.27

       Values used:

         atom   Coordination number  R0_AB[au]  C6      C8
         F          1.899            2.173     14.27    244.15
         F          1.899            2.173     14.27    244.15
         F          1.901            2.173     14.27    244.15
         F          1.898            2.173     14.27    244.15
         F          1.902            2.173     14.27    244.15
         F          1.901            2.173     14.27    244.15
         F          1.901            2.173     14.27    244.15
         F          1.902            2.173     14.27    244.15
         F          1.898            2.173     14.27    244.15
         F          1.901            2.173     14.27    244.15
         F          1.899            2.173     14.27    244.15
         F          1.899            2.173     14.27    244.15
         F          1.901            2.173     14.27    244.15
         F          1.898            2.173     14.27    244.15
         F          1.902            2.173     14.27    244.15
         F          1.901            2.173     14.27    244.15
         F          1.901            2.173     14.27    244.15
         F          1.902            2.173     14.27    244.15
         F          1.898            2.173     14.27    244.15
         F          1.901            2.173     14.27    244.15
         F          1.899            2.173     14.27    244.15
         F          1.899            2.173     14.27    244.15
         F          1.901            2.173     14.27    244.15
         F          1.898            2.173     14.27    244.15
         F          1.902            2.173     14.27    244.15
         F          1.901            2.173     14.27    244.15
         F          1.901            2.173     14.27    244.15
         F          1.902            2.173     14.27    244.15
         F          1.898            2.173     14.27    244.15
         F          1.901            2.173     14.27    244.15
         F          1.899            2.173     14.27    244.15
         F          1.899            2.173     14.27    244.15
         F          1.901            2.173     14.27    244.15
         F          1.898            2.173     14.27    244.15
         F          1.902            2.173     14.27    244.15
         F          1.901            2.173     14.27    244.15
         F          1.901            2.173     14.27    244.15
         F          1.902            2.173     14.27    244.15
         F          1.898            2.173     14.27    244.15
         F          1.901            2.173     14.27    244.15
         F          1.899            2.173     14.27    244.15
         F          1.899            2.173     14.27    244.15
         F          1.901            2.173     14.27    244.15
         F          1.898            2.173     14.27    244.15
         F          1.902            2.173     14.27    244.15
         F          1.901            2.173     14.27    244.15
         F          1.901            2.173     14.27    244.15
         F          1.902            2.173     14.27    244.15
         F          1.898            2.173     14.27    244.15
         F          1.901            2.173     14.27    244.15
         F          1.899            2.173     14.27    244.15
         F          1.899            2.173     14.27    244.15
         F          1.901            2.173     14.27    244.15
         F          1.898            2.173     14.27    244.15
         F          1.902            2.173     14.27    244.15
         F          1.901            2.173     14.27    244.15
         F          1.901            2.173     14.27    244.15
         F          1.902            2.173     14.27    244.15
         F          1.898            2.173     14.27    244.15
         F          1.901            2.173     14.27    244.15
         C          4.123            2.750     36.50   1055.77
         C          4.123            2.750     36.50   1055.76
         C          4.123            2.750     36.50   1055.76
         C          4.123            2.750     36.50   1055.76
         C          4.123            2.750     36.50   1055.76
         C          4.123            2.750     36.50   1055.77
         C          4.123            2.750     36.50   1055.76
         C          4.123            2.750     36.50   1055.76
         C          4.123            2.750     36.50   1055.76
         C          4.123            2.750     36.50   1055.76
         C          4.123            2.750     36.50   1055.77
         C          4.123            2.750     36.50   1055.76
         C          4.123            2.750     36.50   1055.76
         C          4.123            2.750     36.50   1055.76
         C          4.123            2.750     36.50   1055.76
         C          4.123            2.750     36.50   1055.77
         C          4.123            2.750     36.50   1055.76
         C          4.123            2.750     36.50   1055.76
         C          4.123            2.750     36.50   1055.76
         C          4.123            2.750     36.50   1055.76
         C          4.123            2.750     36.50   1055.77
         C          4.123            2.750     36.50   1055.76
         C          4.123            2.750     36.50   1055.76
         C          4.123            2.750     36.50   1055.76
         C          4.123            2.750     36.50   1055.76
         C          4.123            2.750     36.50   1055.77
         C          4.123            2.750     36.50   1055.76
         C          4.123            2.750     36.50   1055.76
         C          4.123            2.750     36.50   1055.76
         C          4.123            2.750     36.50   1055.76

         Molecular C6 ( Ry / a.u.^6 ) =    163062.50


     number of k points=     8
                       cart. coord. in units 2pi/alat
        k(    1) = (   0.0000000   0.0000000   0.0000000), wk =   0.2500000
        k(    2) = (   0.0000000   0.0000000  -0.1457692), wk =   0.2500000
        k(    3) = (   0.0000000  -0.2886751   0.0000000), wk =   0.2500000
        k(    4) = (   0.0000000  -0.2886751  -0.1457692), wk =   0.2500000
        k(    5) = (  -0.5000000   0.0000000   0.0000000), wk =   0.2500000
        k(    6) = (  -0.5000000   0.0000000  -0.1457692), wk =   0.2500000
        k(    7) = (  -0.5000000  -0.2886751   0.0000000), wk =   0.2500000
        k(    8) = (  -0.5000000  -0.2886751  -0.1457692), wk =   0.2500000

     Dense  grid:   646607 G-vectors     FFT dimensions: (  60, 108, 216)

     Smooth grid:   351787 G-vectors     FFT dimensions: (  50,  90, 180)

     Estimated max dynamical RAM per process >     586.84 MB

     Estimated total dynamical RAM >       4.58 GB

     Check: negative core charge=   -0.000005

     Initial potential from superposition of free atoms

     starting charge     539.9987, renormalised to     540.0000
     Starting wfcs are  360 randomized atomic wfcs
     Checking if some PAW data can be deallocated... 

     total cpu time spent up to now is      197.1 secs

     Self-consistent Calculation

     iteration #  1     ecut=    50.00 Ry     beta= 0.50
     Davidson diagonalization with overlap
     ethr =  1.00E-02,  avg # of iterations =  2.0

     total cpu time spent up to now is      804.9 secs

     total energy              =   -4100.36576428 Ry
     estimated scf accuracy    <       9.77172506 Ry

     iteration #  2     ecut=    50.00 Ry     beta= 0.50
     Davidson diagonalization with overlap
     ethr =  1.81E-03,  avg # of iterations =  4.1

     total cpu time spent up to now is     1536.2 secs

     total energy              =   -4103.16430801 Ry
     estimated scf accuracy    <       4.48024603 Ry

     iteration #  3     ecut=    50.00 Ry     beta= 0.50
     Davidson diagonalization with overlap
     ethr =  8.30E-04,  avg # of iterations =  3.0

     total cpu time spent up to now is     2051.0 secs

     total energy              =   -4103.65232489 Ry
     estimated scf accuracy    <       0.30922092 Ry

     iteration #  4     ecut=    50.00 Ry     beta= 0.50
     Davidson diagonalization with overlap
     ethr =  5.73E-05,  avg # of iterations =  5.0

     total cpu time spent up to now is     2822.5 secs

     total energy              =   -4103.79182764 Ry
     estimated scf accuracy    <       0.35848847 Ry

     iteration #  5     ecut=    50.00 Ry     beta= 0.50
     Davidson diagonalization with overlap
     ethr =  5.73E-05,  avg # of iterations =  2.0

     total cpu time spent up to now is     3270.0 secs

     total energy              =   -4103.69509335 Ry
     estimated scf accuracy    <       0.15292128 Ry

     iteration #  6     ecut=    50.00 Ry     beta= 0.50
     Davidson diagonalization with overlap
     ethr =  2.83E-05,  avg # of iterations =  3.6

     total cpu time spent up to now is     4007.2 secs

     total energy              =   -4103.76588283 Ry
     estimated scf accuracy    <       0.13189329 Ry

     iteration #  7     ecut=    50.00 Ry     beta= 0.50
     Davidson diagonalization with overlap
     ethr =  2.44E-05,  avg # of iterations =  2.0

     total cpu time spent up to now is     4490.1 secs

     total energy              =   -4103.76769809 Ry
     estimated scf accuracy    <       0.02144780 Ry

     iteration #  8     ecut=    50.00 Ry     beta= 0.50
     Davidson diagonalization with overlap
     ethr =  3.97E-06,  avg # of iterations =  4.4

     total cpu time spent up to now is     5075.0 secs

     total energy              =   -4103.77393352 Ry
     estimated scf accuracy    <       0.00010256 Ry

     iteration #  9     ecut=    50.00 Ry     beta= 0.50
     Davidson diagonalization with overlap
     ethr =  1.90E-08,  avg # of iterations =  6.6

     total cpu time spent up to now is     5896.4 secs

     total energy              =   -4103.77398363 Ry
     estimated scf accuracy    <       0.00018734 Ry

     iteration # 10     ecut=    50.00 Ry     beta= 0.50
     Davidson diagonalization with overlap
     ethr =  1.90E-08,  avg # of iterations =  2.1

     total cpu time spent up to now is     6390.5 secs

     total energy              =   -4103.77396866 Ry
     estimated scf accuracy    <       0.00005017 Ry

     iteration # 11     ecut=    50.00 Ry     beta= 0.50
     Davidson diagonalization with overlap
     ethr =  9.29E-09,  avg # of iterations =  3.8

     total cpu time spent up to now is     6983.4 secs

     total energy              =   -4103.77398533 Ry
     estimated scf accuracy    <       0.00000281 Ry

     iteration # 12     ecut=    50.00 Ry     beta= 0.50
     Davidson diagonalization with overlap
     ethr =  5.21E-10,  avg # of iterations =  5.0

     total cpu time spent up to now is     7465.1 secs

     total energy              =   -4103.77398486 Ry
     estimated scf accuracy    <       0.00000183 Ry

     iteration # 13     ecut=    50.00 Ry     beta= 0.50
     Davidson diagonalization with overlap
     ethr =  3.38E-10,  avg # of iterations =  3.0

     total cpu time spent up to now is     7980.1 secs

     End of self-consistent calculation

          k = 0.0000 0.0000 0.0000 ( 43951 PWs)   bands (ev):

   -27.2848 -27.2464 -27.2070 -27.2062 -27.1646 -27.1631 -27.0098 -27.0098
   -26.9800 -26.9751 -26.9429 -26.9132 -26.8782 -26.8779 -26.8361 -26.8292
   -26.8086 -26.7986 -26.7920 -26.7795 -26.7789 -26.7785 -26.7189 -26.7178
   -26.6936 -26.6934 -26.6797 -26.6794 -26.6752 -26.6751 -21.4489 -21.4354
   -21.3987 -21.3982 -21.3656 -21.3656 -21.3588 -21.2942 -21.2684 -21.2652
   -21.2383 -21.2379 -21.2377 -21.2268 -21.2263 -21.2021 -21.2019 -21.1844
   -21.1769 -21.1742 -21.1738 -21.1638 -21.1588 -21.1582 -21.1527 -21.1490
   -21.1451 -21.1412 -21.1383 -21.0959 -14.4534 -14.3793 -14.2763 -14.2757
   -14.2028 -14.1932 -13.7544 -13.7543 -13.7179 -13.7102 -12.9108 -12.9096
   -12.9036 -12.9009 -11.7644 -11.7635 -11.7066 -11.7066 -10.3198 -10.3164
   -10.1852 -10.1852  -9.5194  -9.4170  -9.2798  -9.0769  -9.0071  -8.9127
    -8.8619  -8.8615  -8.5189  -8.5076  -8.4687  -8.4684  -8.4267  -8.4264
    -8.3452  -8.3402  -8.3220  -8.2901  -8.0676  -8.0622  -8.0459  -8.0458
    -8.0295  -8.0197  -8.0059  -7.9970  -7.7832  -7.7825  -7.7253  -7.7222
    -7.6988  -7.4866  -7.4628  -7.2415  -7.0413  -7.0408  -7.0323  -7.0298
    -6.5461  -6.5413  -6.4671  -6.4080  -6.4074  -6.4033  -6.3781  -6.2630
    -6.1154  -6.0685  -6.0550  -6.0546  -5.7056  -5.7055  -5.6974  -5.6823
    -5.6312  -5.6187  -5.6180  -5.6107  -5.6106  -5.6098  -5.5588  -5.5527
    -5.5142  -5.5137  -5.4829  -5.4784  -5.4735  -5.4420  -5.4263  -5.4262
    -5.4122  -5.4076  -5.3841  -5.3775  -5.3592  -5.3482  -5.3472  -5.3465
    -5.3442  -5.3253  -5.2642  -5.2468  -5.1948  -5.1946  -5.0603  -5.0226
    -5.0134  -5.0132  -4.9811  -4.8615  -4.8607  -4.8288  -4.7641  -4.7635
    -4.7205  -4.6853  -4.5948  -4.5371  -4.0408  -4.0296  -4.0039  -3.9920
    -3.9624  -3.9536  -3.9086  -3.9082  -3.8954  -3.8951  -3.8448  -3.8448
    -3.7892  -3.7889  -3.6800  -3.6785  -3.5424  -3.5423  -3.0140  -3.0136
    -2.9302  -2.9302  -2.1833  -2.1815  -2.1345  -2.1345  -2.1249  -2.1215
    -2.0909  -2.0859  -2.0468  -2.0331  -2.0186  -1.9990  -1.9845  -1.9771
    -1.9645  -1.9645  -1.8910  -1.8752  -1.8361  -1.8361  -1.6420  -1.6090
    -1.5871  -1.5785  -1.5779  -1.5455  -1.5430  -1.5360  -1.5357  -1.5252
    -1.5223  -1.4964  -1.4849  -1.4722  -0.8381  -0.8378  -0.8151  -0.7643
     1.0772   1.2885   1.3396   1.3754   1.4449   1.4738   1.4738   1.4797
     1.4808   1.4903   1.4951   1.4954   1.4966   1.5018   1.5359   1.5385
     1.5541   1.5584   1.5590   1.5633   1.5655   1.5692   1.5698   1.5941
     1.6452   1.6494   1.6499   1.6518   1.6600   1.6862

          k = 0.0000 0.0000-0.1458 ( 43906 PWs)   bands (ev):

   -27.2648 -27.2645 -27.2380 -27.2077 -27.1214 -27.1142 -27.0870 -27.0728
   -26.9466 -26.8973 -26.8973 -26.8951 -26.8900 -26.8763 -26.8727 -26.8725
   -26.8451 -26.8442 -26.7744 -26.7692 -26.7388 -26.7387 -26.7179 -26.7178
   -26.7127 -26.7124 -26.6836 -26.6830 -26.6695 -26.6678 -21.4521 -21.4276
   -21.4058 -21.3880 -21.3800 -21.3792 -21.3214 -21.3106 -21.2742 -21.2740
   -21.2346 -21.2344 -21.2237 -21.2237 -21.2221 -21.2050 -21.2010 -21.1974
   -21.1951 -21.1639 -21.1637 -21.1615 -21.1579 -21.1578 -21.1498 -21.1496
   -21.1490 -21.1472 -21.1360 -21.0959 -14.4091 -14.4086 -14.3615 -14.2960
   -14.0577 -14.0563 -14.0012 -13.9913 -13.3697 -13.3696 -13.3530 -13.3526
   -12.3822 -12.3812 -12.3490 -12.3490 -11.0645 -11.0625 -10.9792 -10.9763
    -9.6885  -9.6660  -9.4811  -9.4182  -9.4181  -9.2954  -9.0830  -8.8659
    -8.8653  -8.8638  -8.4750  -8.4558  -8.4455  -8.4404  -8.4369  -8.4349
    -8.4043  -8.4037  -8.3777  -8.3770  -8.2169  -8.2124  -8.1856  -8.1854
    -7.9427  -7.9099  -7.8805  -7.8559  -7.7202  -7.7197  -7.5811  -7.5719
    -7.4373  -7.4180  -7.4175  -7.3911  -7.3881  -7.2415  -6.9683  -6.9621
    -6.6024  -6.5287  -6.5279  -6.4743  -6.3957  -6.2963  -6.2646  -6.2426
    -6.1993  -6.1990  -5.9127  -5.9022  -5.8723  -5.8417  -5.6505  -5.6505
    -5.6260  -5.6238  -5.6006  -5.5707  -5.5564  -5.5561  -5.5504  -5.5410
    -5.5181  -5.5180  -5.5178  -5.5100  -5.4678  -5.4660  -5.4500  -5.4496
    -5.4189  -5.4135  -5.3965  -5.3902  -5.3687  -5.3555  -5.3356  -5.3348
    -5.3221  -5.2500  -5.2496  -5.2200  -5.2056  -5.1851  -5.1163  -5.1108
    -5.0746  -4.9474  -4.9410  -4.8681  -4.8679  -4.7634  -4.7507  -4.7503
    -4.7403  -4.6991  -4.5852  -4.5732  -4.0338  -4.0275  -4.0025  -3.9968
    -3.9479  -3.9390  -3.9387  -3.9328  -3.8664  -3.8588  -3.8451  -3.8352
    -3.8280  -3.8279  -3.7026  -3.7026  -3.4035  -3.4023  -3.2885  -3.2858
    -2.5388  -2.5365  -2.4872  -2.4871  -2.1804  -2.1783  -2.1361  -2.1360
    -2.1178  -2.1171  -2.0768  -2.0738  -2.0169  -2.0165  -1.9855  -1.9855
    -1.7952  -1.7901  -1.7772  -1.7771  -1.7497  -1.7377  -1.7264  -1.6755
    -1.6736  -1.6731  -1.6688  -1.6674  -1.5535  -1.5423  -1.5005  -1.4996
    -1.4994  -1.4534  -1.2194  -1.2190  -1.1983  -1.1550  -0.6700  -0.6192
     1.0775   1.2909   1.3267   1.4016   1.4212   1.4719   1.4779   1.4786
     1.4903   1.4916   1.4921   1.4958   1.4971   1.5043   1.5245   1.5491
     1.5503   1.5590   1.5594   1.5606   1.5671   1.5695   1.5696   1.5941
     1.6464   1.6469   1.6511   1.6518   1.6600   1.6862

          k = 0.0000-0.2887 0.0000 ( 43982 PWs)   bands (ev):

   -27.2657 -27.2657 -27.1886 -27.1886 -27.1867 -27.1867 -26.9962 -26.9962
   -26.9947 -26.9947 -26.9072 -26.9072 -26.8930 -26.8930 -26.8210 -26.8210
   -26.8064 -26.8064 -26.7873 -26.7873 -26.7855 -26.7855 -26.7052 -26.7052
   -26.7044 -26.7044 -26.6776 -26.6776 -26.6772 -26.6772 -21.4233 -21.4233
   -21.4174 -21.4174 -21.3630 -21.3630 -21.3420 -21.3420 -21.2681 -21.2681
   -21.2593 -21.2593 -21.2056 -21.2056 -21.2028 -21.2028 -21.1863 -21.1863
   -21.1729 -21.1729 -21.1683 -21.1683 -21.1583 -21.1583 -21.1490 -21.1490
   -21.1428 -21.1428 -21.1322 -21.1322 -14.4141 -14.4141 -14.2426 -14.2426
   -14.2353 -14.2353 -13.7365 -13.7365 -13.7331 -13.7331 -12.9068 -12.9068
   -12.9060 -12.9060 -11.7357 -11.7357 -11.7353 -11.7353 -10.2529 -10.2529
   -10.2513 -10.2513  -9.2484  -9.2484  -9.2198  -9.2197  -9.1088  -9.1088
    -8.9907  -8.9907  -8.5132  -8.5132  -8.5044  -8.5044  -8.3957  -8.3956
    -8.3880  -8.3880  -8.1717  -8.1717  -8.1661  -8.1661  -8.0193  -8.0193
    -8.0149  -8.0148  -7.8655  -7.8655  -7.8488  -7.8488  -7.6121  -7.6121
    -7.6012  -7.6012  -7.4458  -7.4458  -7.0342  -7.0342  -7.0339  -7.0339
    -6.4958  -6.4958  -6.4453  -6.4453  -6.4034  -6.4034  -6.3711  -6.3711
    -6.0987  -6.0987  -6.0898  -6.0898  -5.7078  -5.7078  -5.6879  -5.6879
    -5.6201  -5.6201  -5.6127  -5.6127  -5.5960  -5.5960  -5.5729  -5.5729
    -5.5121  -5.5121  -5.4951  -5.4951  -5.4682  -5.4682  -5.4360  -5.4360
    -5.4279  -5.4279  -5.4058  -5.4058  -5.3831  -5.3831  -5.3449  -5.3449
    -5.2571  -5.2571  -5.2331  -5.2331  -5.0646  -5.0646  -4.9893  -4.9893
    -4.9525  -4.9524  -4.9485  -4.9485  -4.8792  -4.8792  -4.7839  -4.7839
    -4.7346  -4.7345  -4.6500  -4.6500  -4.0003  -4.0003  -3.9505  -3.9505
    -3.9415  -3.9414  -3.9248  -3.9248  -3.9116  -3.9115  -3.8620  -3.8620
    -3.8558  -3.8558  -3.6111  -3.6111  -3.6106  -3.6106  -2.9694  -2.9694
    -2.9677  -2.9677  -2.1568  -2.1568  -2.1562  -2.1562  -2.1046  -2.1046
    -2.1014  -2.1014  -2.0315  -2.0315  -2.0138  -2.0138  -1.9704  -1.9704
    -1.9699  -1.9699  -1.8671  -1.8671  -1.8585  -1.8585  -1.6216  -1.6216
    -1.6017  -1.6017  -1.5585  -1.5585  -1.5351  -1.5351  -1.5225  -1.5225
    -1.5069  -1.5069  -1.4802  -1.4802  -0.8250  -0.8250  -0.7998  -0.7998
     1.2917   1.2917   1.3776   1.3776   1.4112   1.4112   1.4278   1.4278
     1.4810   1.4810   1.5026   1.5026   1.5177   1.5177   1.5273   1.5273
     1.5439   1.5439   1.5629   1.5629   1.5844   1.5844   1.6054   1.6054
     1.6126   1.6126   1.6163   1.6163   1.6629   1.6629

          k = 0.0000-0.2887-0.1458 ( 44012 PWs)   bands (ev):

   -27.2515 -27.2515 -27.2388 -27.2388 -27.1062 -27.1062 -27.0955 -27.0955
   -26.9141 -26.9140 -26.8866 -26.8866 -26.8865 -26.8865 -26.8679 -26.8679
   -26.8594 -26.8594 -26.7555 -26.7555 -26.7525 -26.7525 -26.7158 -26.7158
   -26.7156 -26.7156 -26.6759 -26.6759 -26.6752 -26.6752 -21.4289 -21.4289
   -21.4043 -21.4043 -21.3823 -21.3823 -21.3127 -21.3127 -21.3021 -21.3021
   -21.2343 -21.2343 -21.2162 -21.2162 -21.2021 -21.2021 -21.1843 -21.1843
   -21.1735 -21.1735 -21.1711 -21.1711 -21.1530 -21.1530 -21.1502 -21.1502
   -21.1436 -21.1436 -21.1324 -21.1324 -14.3844 -14.3844 -14.3535 -14.3535
   -14.0302 -14.0301 -14.0252 -14.0252 -13.3617 -13.3617 -13.3614 -13.3613
   -12.3657 -12.3657 -12.3652 -12.3652 -11.0213 -11.0213 -11.0208 -11.0208
    -9.5496  -9.5496  -9.5450  -9.5450  -9.2232  -9.2232  -9.1076  -9.1076
    -8.9888  -8.9888  -8.4718  -8.4718  -8.4696  -8.4696  -8.4342  -8.4342
    -8.4304  -8.4304  -8.2972  -8.2972  -8.2895  -8.2895  -8.0261  -8.0261
    -8.0101  -8.0101  -7.7229  -7.7229  -7.7002  -7.7002  -7.5670  -7.5670
    -7.4469  -7.4469  -7.4039  -7.4039  -7.4029  -7.4029  -6.9623  -6.9623
    -6.5442  -6.5442  -6.4908  -6.4908  -6.3475  -6.3475  -6.2724  -6.2724
    -6.2450  -6.2450  -5.9006  -5.9006  -5.8848  -5.8848  -5.6431  -5.6431
    -5.6284  -5.6284  -5.5738  -5.5738  -5.5637  -5.5637  -5.5439  -5.5439
    -5.5303  -5.5303  -5.5061  -5.5061  -5.4753  -5.4753  -5.4552  -5.4552
    -5.4242  -5.4242  -5.4111  -5.4111  -5.3798  -5.3798  -5.3733  -5.3733
    -5.2209  -5.2209  -5.1819  -5.1819  -5.1092  -5.1092  -5.0836  -5.0836
    -4.9626  -4.9626  -4.8917  -4.8917  -4.8102  -4.8102  -4.7917  -4.7917
    -4.7309  -4.7309  -4.6860  -4.6860  -3.9844  -3.9844  -3.9691  -3.9691
    -3.9381  -3.9381  -3.9326  -3.9326  -3.8935  -3.8935  -3.8916  -3.8916
    -3.7777  -3.7777  -3.7758  -3.7758  -3.3430  -3.3430  -3.3420  -3.3420
    -2.5090  -2.5090  -2.5079  -2.5079  -2.1573  -2.1573  -2.1564  -2.1564
    -2.0956  -2.0956  -2.0915  -2.0915  -2.0020  -2.0020  -2.0013  -2.0013
    -1.7847  -1.7847  -1.7816  -1.7816  -1.7343  -1.7343  -1.7227  -1.7227
    -1.6694  -1.6694  -1.6624  -1.6624  -1.5393  -1.5393  -1.5212  -1.5212
    -1.4643  -1.4643  -1.2070  -1.2070  -1.1854  -1.1854  -0.6433  -0.6433
     1.2918   1.2918   1.3883   1.3883   1.3896   1.3896   1.4460   1.4460
     1.4698   1.4698   1.5075   1.5075   1.5171   1.5171   1.5277   1.5277
     1.5423   1.5423   1.5642   1.5642   1.5837   1.5837   1.6056   1.6056
     1.6131   1.6131   1.6159   1.6159   1.6629   1.6629

          k =-0.5000 0.0000 0.0000 ( 44028 PWs)   bands (ev):

   -27.2434 -27.2434 -27.1703 -27.1703 -27.1626 -27.1626 -26.9809 -26.9809
   -26.9781 -26.9781 -26.9323 -26.9323 -26.9150 -26.9150 -26.8389 -26.8389
   -26.8284 -26.8284 -26.7790 -26.7790 -26.7789 -26.7789 -26.7181 -26.7181
   -26.7180 -26.7180 -26.6801 -26.6801 -26.6800 -26.6799 -21.4411 -21.4411
   -21.4371 -21.4371 -21.3732 -21.3732 -21.3634 -21.3634 -21.2708 -21.2708
   -21.2699 -21.2699 -21.1990 -21.1990 -21.1908 -21.1908 -21.1845 -21.1845
   -21.1739 -21.1739 -21.1602 -21.1602 -21.1453 -21.1453 -21.1424 -21.1424
   -21.1226 -21.1225 -21.1219 -21.1219 -14.3713 -14.3713 -14.2094 -14.2094
   -14.1947 -14.1947 -13.7168 -13.7168 -13.7132 -13.7132 -12.9109 -12.9109
   -12.9097 -12.9097 -11.7640 -11.7640 -11.7635 -11.7635 -10.3164 -10.3164
   -10.3160 -10.3160  -9.4378  -9.4378  -9.3784  -9.3784  -9.2856  -9.2856
    -9.2181  -9.2181  -8.5276  -8.5276  -8.5199  -8.5199  -8.3402  -8.3402
    -8.3362  -8.3362  -8.0573  -8.0573  -8.0526  -8.0526  -8.0045  -8.0045
    -7.9964  -7.9964  -7.7149  -7.7149  -7.7145  -7.7145  -7.4906  -7.4906
    -7.4112  -7.4112  -7.3318  -7.3318  -7.0221  -7.0221  -7.0209  -7.0209
    -6.4938  -6.4938  -6.4579  -6.4578  -6.4191  -6.4191  -6.4007  -6.4007
    -6.1102  -6.1102  -6.0940  -6.0940  -5.6888  -5.6888  -5.6830  -5.6830
    -5.6131  -5.6131  -5.6067  -5.6067  -5.5775  -5.5775  -5.5723  -5.5723
    -5.4844  -5.4844  -5.4799  -5.4799  -5.4449  -5.4449  -5.4246  -5.4246
    -5.4208  -5.4208  -5.3896  -5.3896  -5.3515  -5.3515  -5.3404  -5.3404
    -5.2420  -5.2420  -5.2217  -5.2217  -5.0117  -5.0117  -4.9554  -4.9554
    -4.9369  -4.9369  -4.9245  -4.9245  -4.8192  -4.8192  -4.7148  -4.7148
    -4.7048  -4.7048  -4.5624  -4.5624  -4.0363  -4.0363  -3.9976  -3.9976
    -3.9942  -3.9942  -3.9673  -3.9673  -3.9535  -3.9535  -3.9351  -3.9351
    -3.9334  -3.9334  -3.6878  -3.6878  -3.6875  -3.6875  -3.0130  -3.0130
    -3.0130  -3.0130  -2.1821  -2.1821  -2.1808  -2.1808  -2.1306  -2.1306
    -2.1230  -2.1230  -2.0399  -2.0399  -2.0275  -2.0275  -1.9824  -1.9824
    -1.9821  -1.9821  -1.8887  -1.8887  -1.8819  -1.8819  -1.6378  -1.6378
    -1.6211  -1.6211  -1.5527  -1.5527  -1.5370  -1.5370  -1.5042  -1.5042
    -1.4991  -1.4991  -1.4871  -1.4871  -0.8012  -0.8012  -0.7764  -0.7764
     1.1663   1.1663   1.2057   1.2058   1.2913   1.2913   1.3306   1.3306
     1.4351   1.4351   1.4429   1.4429   1.5150   1.5150   1.5308   1.5308
     1.5554   1.5554   1.5849   1.5849   1.5863   1.5863   1.6120   1.6120
     1.6487   1.6487   1.6615   1.6615   1.6641   1.6641

          k =-0.5000 0.0000-0.1458 ( 43908 PWs)   bands (ev):

   -27.2304 -27.2304 -27.2156 -27.2156 -27.0893 -27.0893 -27.0739 -27.0739
   -26.9393 -26.9393 -26.8900 -26.8900 -26.8869 -26.8869 -26.8714 -26.8714
   -26.8710 -26.8710 -26.7734 -26.7734 -26.7702 -26.7702 -26.7126 -26.7126
   -26.7125 -26.7125 -26.6839 -26.6839 -26.6835 -26.6835 -21.4481 -21.4481
   -21.4213 -21.4212 -21.3997 -21.3997 -21.3266 -21.3266 -21.3136 -21.3135
   -21.2283 -21.2283 -21.2228 -21.2228 -21.1933 -21.1933 -21.1827 -21.1827
   -21.1627 -21.1626 -21.1590 -21.1590 -21.1527 -21.1527 -21.1408 -21.1408
   -21.1230 -21.1230 -21.1212 -21.1212 -14.3433 -14.3433 -14.3120 -14.3120
   -14.0041 -14.0041 -13.9920 -13.9920 -13.3534 -13.3534 -13.3531 -13.3531
   -12.3818 -12.3818 -12.3813 -12.3813 -11.0640 -11.0640 -11.0621 -11.0621
    -9.6664  -9.6664  -9.6552  -9.6552  -9.4135  -9.4135  -9.2875  -9.2875
    -9.2146  -9.2146  -8.4584  -8.4584  -8.4503  -8.4503  -8.4443  -8.4443
    -8.4425  -8.4424  -8.2055  -8.2055  -8.2034  -8.2034  -7.8936  -7.8935
    -7.8758  -7.8758  -7.5765  -7.5765  -7.5613  -7.5613  -7.4096  -7.4096
    -7.3979  -7.3979  -7.3677  -7.3677  -7.3269  -7.3269  -6.9556  -6.9556
    -6.5617  -6.5616  -6.4961  -6.4961  -6.3332  -6.3332  -6.3316  -6.3315
    -6.2444  -6.2444  -5.9046  -5.9045  -5.8779  -5.8779  -5.6271  -5.6271
    -5.6204  -5.6204  -5.5684  -5.5684  -5.5669  -5.5669  -5.5179  -5.5179
    -5.5111  -5.5111  -5.4732  -5.4732  -5.4535  -5.4535  -5.4382  -5.4382
    -5.4120  -5.4120  -5.4080  -5.4080  -5.3743  -5.3743  -5.3662  -5.3662
    -5.1750  -5.1750  -5.1492  -5.1492  -5.1077  -5.1077  -5.0669  -5.0669
    -4.9273  -4.9273  -4.8246  -4.8246  -4.7737  -4.7737  -4.7388  -4.7388
    -4.7031  -4.7031  -4.5886  -4.5886  -4.0245  -4.0245  -4.0009  -4.0009
    -3.9914  -3.9914  -3.9865  -3.9865  -3.9509  -3.9509  -3.9390  -3.9390
    -3.8612  -3.8612  -3.8602  -3.8602  -3.4063  -3.4063  -3.4041  -3.4041
    -2.5354  -2.5354  -2.5352  -2.5352  -2.1805  -2.1805  -2.1804  -2.1804
    -2.1172  -2.1172  -2.1153  -2.1153  -2.0196  -2.0196  -2.0195  -2.0195
    -1.7902  -1.7902  -1.7896  -1.7896  -1.7536  -1.7536  -1.7395  -1.7395
    -1.6657  -1.6657  -1.6622  -1.6622  -1.5563  -1.5563  -1.5480  -1.5480
    -1.4497  -1.4497  -1.1838  -1.1838  -1.1638  -1.1638  -0.6194  -0.6194
     1.1652   1.1652   1.2135   1.2135   1.2687   1.2687   1.3667   1.3667
     1.3931   1.3931   1.4753   1.4753   1.4972   1.4972   1.5450   1.5450
     1.5481   1.5481   1.5811   1.5811   1.5915   1.5915   1.6107   1.6107
     1.6494   1.6494   1.6605   1.6605   1.6647   1.6647

          k =-0.5000-0.2887 0.0000 ( 43984 PWs)   bands (ev):

   -27.2467 -27.2467 -27.1651 -27.1651 -27.1625 -27.1624 -26.9800 -26.9800
   -26.9751 -26.9751 -26.9427 -26.9427 -26.9131 -26.9131 -26.8364 -26.8364
   -26.8291 -26.8291 -26.7789 -26.7788 -26.7785 -26.7785 -26.7188 -26.7188
   -26.7178 -26.7178 -26.6797 -26.6797 -26.6795 -26.6795 -21.4491 -21.4491
   -21.4360 -21.4360 -21.3654 -21.3654 -21.3586 -21.3586 -21.2683 -21.2683
   -21.2652 -21.2652 -21.2019 -21.2019 -21.2009 -21.2009 -21.1841 -21.1841
   -21.1766 -21.1766 -21.1640 -21.1640 -21.1492 -21.1492 -21.1413 -21.1413
   -21.1389 -21.1389 -21.0965 -21.0965 -14.3796 -14.3796 -14.2030 -14.2029
   -14.1928 -14.1928 -13.7178 -13.7178 -13.7102 -13.7102 -12.9108 -12.9108
   -12.9096 -12.9096 -11.7644 -11.7644 -11.7635 -11.7634 -10.3199 -10.3198
   -10.3163 -10.3163  -9.5194  -9.5194  -9.4164  -9.4164  -9.2795  -9.2795
    -9.0776  -9.0776  -8.5190  -8.5190  -8.5077  -8.5077  -8.3453  -8.3453
    -8.3404  -8.3404  -8.0675  -8.0675  -8.0622  -8.0622  -8.0059  -8.0059
    -7.9970  -7.9970  -7.7253  -7.7253  -7.7222  -7.7222  -7.4870  -7.4870
    -7.4622  -7.4622  -7.2416  -7.2416  -7.0320  -7.0320  -7.0301  -7.0301
    -6.5461  -6.5461  -6.4679  -6.4679  -6.4031  -6.4031  -6.3777  -6.3777
    -6.1153  -6.1153  -6.0684  -6.0684  -5.6973  -5.6973  -5.6823  -5.6822
    -5.6194  -5.6194  -5.6186  -5.6186  -5.5589  -5.5589  -5.5529  -5.5529
    -5.4825  -5.4825  -5.4782  -5.4782  -5.4417  -5.4417  -5.4118  -5.4118
    -5.4082  -5.4082  -5.3836  -5.3836  -5.3778  -5.3778  -5.3480  -5.3480
    -5.2640  -5.2640  -5.2468  -5.2468  -5.0602  -5.0602  -5.0222  -5.0222
    -4.9811  -4.9811  -4.8617  -4.8617  -4.8606  -4.8606  -4.6859  -4.6859
    -4.5951  -4.5951  -4.5369  -4.5369  -4.0405  -4.0405  -4.0295  -4.0295
    -4.0039  -4.0039  -3.9914  -3.9914  -3.9531  -3.9531  -3.9093  -3.9093
    -3.9083  -3.9083  -3.6802  -3.6802  -3.6788  -3.6787  -3.0141  -3.0141
    -3.0136  -3.0136  -2.1834  -2.1834  -2.1816  -2.1816  -2.1251  -2.1251
    -2.1216  -2.1216  -2.0468  -2.0468  -2.0331  -2.0331  -1.9843  -1.9843
    -1.9770  -1.9770  -1.8910  -1.8910  -1.8753  -1.8753  -1.6424  -1.6424
    -1.6085  -1.6085  -1.5454  -1.5454  -1.5426  -1.5426  -1.5223  -1.5223
    -1.4970  -1.4970  -1.4850  -1.4850  -0.8153  -0.8153  -0.7640  -0.7640
     1.0764   1.0764   1.2885   1.2885   1.3394   1.3394   1.3758   1.3758
     1.4450   1.4450   1.4803   1.4803   1.4977   1.4977   1.5026   1.5026
     1.5358   1.5358   1.5388   1.5388   1.5542   1.5542   1.5936   1.5936
     1.6513   1.6513   1.6596   1.6596   1.6852   1.6852

          k =-0.5000-0.2887-0.1458 ( 44016 PWs)   bands (ev):

   -27.2384 -27.2384 -27.2074 -27.2074 -27.0869 -27.0869 -27.0728 -27.0728
   -26.9464 -26.9464 -26.8944 -26.8944 -26.8770 -26.8770 -26.8726 -26.8726
   -26.8725 -26.8725 -26.7745 -26.7745 -26.7692 -26.7692 -26.7128 -26.7128
   -26.7123 -26.7123 -26.6836 -26.6836 -26.6830 -26.6830 -21.4523 -21.4523
   -21.4283 -21.4283 -21.3875 -21.3875 -21.3211 -21.3211 -21.3106 -21.3106
   -21.2235 -21.2235 -21.2220 -21.2220 -21.2004 -21.2004 -21.1944 -21.1944
   -21.1641 -21.1641 -21.1609 -21.1609 -21.1503 -21.1503 -21.1477 -21.1477
   -21.1363 -21.1363 -21.0964 -21.0964 -14.3620 -14.3620 -14.2957 -14.2957
   -14.0011 -14.0011 -13.9913 -13.9913 -13.3529 -13.3529 -13.3527 -13.3527
   -12.3822 -12.3822 -12.3812 -12.3812 -11.0645 -11.0645 -11.0625 -11.0625
    -9.6885  -9.6885  -9.6659  -9.6659  -9.4808  -9.4808  -9.2951  -9.2951
    -9.0836  -9.0836  -8.4556  -8.4556  -8.4458  -8.4458  -8.4368  -8.4368
    -8.4352  -8.4352  -8.2170  -8.2170  -8.2124  -8.2123  -7.9098  -7.9098
    -7.8805  -7.8805  -7.5808  -7.5808  -7.5722  -7.5722  -7.4371  -7.4371
    -7.3915  -7.3915  -7.3877  -7.3877  -7.2416  -7.2416  -6.9684  -6.9684
    -6.6028  -6.6028  -6.4738  -6.4738  -6.3963  -6.3963  -6.2642  -6.2642
    -6.2425  -6.2425  -5.9022  -5.9022  -5.8721  -5.8721  -5.6266  -5.6266
    -5.6243  -5.6243  -5.5709  -5.5709  -5.5506  -5.5506  -5.5177  -5.5177
    -5.5098  -5.5098  -5.4676  -5.4676  -5.4656  -5.4656  -5.4193  -5.4193
    -5.4132  -5.4132  -5.3959  -5.3959  -5.3899  -5.3899  -5.3692  -5.3692
    -5.2199  -5.2199  -5.1849  -5.1849  -5.1107  -5.1107  -5.0745  -5.0745
    -4.9473  -4.9473  -4.9406  -4.9406  -4.7410  -4.7410  -4.6990  -4.6990
    -4.5853  -4.5853  -4.5731  -4.5731  -4.0338  -4.0338  -4.0270  -4.0270
    -4.0026  -4.0026  -3.9961  -3.9961  -3.9474  -3.9474  -3.9330  -3.9330
    -3.8455  -3.8455  -3.8356  -3.8356  -3.4037  -3.4037  -3.4024  -3.4024
    -2.5389  -2.5389  -2.5366  -2.5366  -2.1804  -2.1804  -2.1784  -2.1784
    -2.1179  -2.1179  -2.1173  -2.1173  -2.0168  -2.0168  -2.0164  -2.0164
    -1.7952  -1.7952  -1.7900  -1.7900  -1.7497  -1.7497  -1.7378  -1.7378
    -1.6684  -1.6684  -1.6677  -1.6677  -1.5533  -1.5533  -1.5424  -1.5424
    -1.4534  -1.4534  -1.1987  -1.1987  -1.1547  -1.1547  -0.6192  -0.6192
     1.0767   1.0767   1.2909   1.2909   1.3266   1.3266   1.4017   1.4017
     1.4214   1.4214   1.4910   1.4910   1.4970   1.4970   1.5049   1.5049
     1.5245   1.5245   1.5494   1.5494   1.5503   1.5503   1.5936   1.5936
     1.6513   1.6513   1.6596   1.6596   1.6852   1.6852

     highest occupied level (ev):     1.6862

!    total energy              =   -4103.77398505 Ry
     total all-electron energy =    -14261.460175 Ry
     estimated scf accuracy    <       0.00000010 Ry

     The total energy is the sum of the following terms:
     one-electron contribution =   -2853.00859707 Ry
     hartree contribution      =    1701.14799000 Ry
     xc contribution           =    -716.22939575 Ry
     ewald contribution        =   -1379.03409749 Ry
     DFT-D3 Dispersion         =      -0.28435450 Ry
     one-center paw contrib.   =    -856.36553024 Ry

     convergence has been achieved in  13 iterations

     Forces acting on atoms (cartesian axes, Ry/au):

     atom    1 type  2   force =    -0.07434694    0.78087722   -0.04374428
     atom    2 type  2   force =    -0.07434694   -0.78087722    0.04374428
     atom    3 type  2   force =    -0.08827562   -0.77981733   -0.04489437
     atom    4 type  2   force =     0.23567704    0.74530315    0.04402831
     atom    5 type  2   force =     0.24489083    0.74263789   -0.04530043
     atom    6 type  2   force =    -0.38719808   -0.67692116    0.04411133
     atom    7 type  2   force =    -0.39270103   -0.67373623   -0.04408635
     atom    8 type  2   force =     0.52066564    0.58340084    0.04531529
     atom    9 type  2   force =     0.52763952    0.57674510   -0.04402789
     atom   10 type  2   force =    -0.63126713   -0.46632902    0.04491017
     atom   11 type  2   force =    -0.63916885   -0.45486026   -0.04378965
     atom   12 type  2   force =     0.71342402    0.32609881    0.04378060
     atom   13 type  2   force =     0.71952932    0.31359396   -0.04490888
     atom   14 type  2   force =    -0.76342183   -0.16856445    0.04401667
     atom   15 type  2   force =    -0.76584869   -0.15933779   -0.04533225
     atom   16 type  2   force =     0.77981754    0.00316942    0.04413639
     atom   17 type  2   force =     0.77981754   -0.00316942   -0.04413639
     atom   18 type  2   force =    -0.76584869    0.15933779    0.04533225
     atom   19 type  2   force =    -0.76342183    0.16856445   -0.04401667
     atom   20 type  2   force =     0.71952932   -0.31359396    0.04490888
     atom   21 type  2   force =     0.71342402   -0.32609881   -0.04378060
     atom   22 type  2   force =    -0.63916885    0.45486026    0.04378965
     atom   23 type  2   force =    -0.63126713    0.46632902   -0.04491017
     atom   24 type  2   force =     0.52763952   -0.57674510    0.04402789
     atom   25 type  2   force =     0.52066564   -0.58340084   -0.04531529
     atom   26 type  2   force =    -0.39270103    0.67373623    0.04408635
     atom   27 type  2   force =    -0.38719808    0.67692116   -0.04411133
     atom   28 type  2   force =     0.24489083   -0.74263789    0.04530043
     atom   29 type  2   force =     0.23567704   -0.74530315   -0.04402831
     atom   30 type  2   force =    -0.08827562    0.77981733    0.04489437
     atom   31 type  2   force =    -0.07434592    0.78087719   -0.04374415
     atom   32 type  2   force =    -0.07434592   -0.78087719    0.04374415
     atom   33 type  2   force =    -0.08827667   -0.77981709   -0.04489427
     atom   34 type  2   force =     0.23567814    0.74530270    0.04402834
     atom   35 type  2   force =     0.24489074    0.74263770   -0.04530018
     atom   36 type  2   force =    -0.38719776   -0.67692106    0.04411155
     atom   37 type  2   force =    -0.39270117   -0.67373565   -0.04408618
     atom   38 type  2   force =     0.52066522    0.58340080    0.04531549
     atom   39 type  2   force =     0.52763835    0.57674512   -0.04402760
     atom   40 type  2   force =    -0.63126644   -0.46632880    0.04491025
     atom   41 type  2   force =    -0.63916798   -0.45486062   -0.04378944
     atom   42 type  2   force =     0.71342356    0.32609775    0.04378074
     atom   43 type  2   force =     0.71952935    0.31359396   -0.04490885
     atom   44 type  2   force =    -0.76342123   -0.16856413    0.04401668
     atom   45 type  2   force =    -0.76584847   -0.15933865   -0.04533245
     atom   46 type  2   force =     0.77981718    0.00316836    0.04413614
     atom   47 type  2   force =     0.77981718   -0.00316836   -0.04413614
     atom   48 type  2   force =    -0.76584847    0.15933865    0.04533245
     atom   49 type  2   force =    -0.76342123    0.16856413   -0.04401668
     atom   50 type  2   force =     0.71952935   -0.31359396    0.04490885
     atom   51 type  2   force =     0.71342356   -0.32609775   -0.04378074
     atom   52 type  2   force =    -0.63916798    0.45486062    0.04378944
     atom   53 type  2   force =    -0.63126644    0.46632880   -0.04491025
     atom   54 type  2   force =     0.52763835   -0.57674512    0.04402760
     atom   55 type  2   force =     0.52066522   -0.58340080   -0.04531549
     atom   56 type  2   force =    -0.39270117    0.67373565    0.04408618
     atom   57 type  2   force =    -0.38719776    0.67692106   -0.04411155
     atom   58 type  2   force =     0.24489074   -0.74263770    0.04530018
     atom   59 type  2   force =     0.23567814   -0.74530270   -0.04402834
     atom   60 type  2   force =    -0.08827667    0.77981709    0.04489427
     atom   61 type  1   force =     0.12457554    0.00000000    0.00000000
     atom   62 type  1   force =    -0.12194090    0.02733853   -0.00011903
     atom   63 type  1   force =     0.11428181   -0.05167493    0.00013058
     atom   64 type  1   force =    -0.10167614    0.07343486   -0.00015408
     atom   65 type  1   force =     0.08510442   -0.09196353    0.00002666
     atom   66 type  1   force =    -0.06215313    0.10820365    0.00000644
     atom   67 type  1   force =     0.03706429   -0.11931372   -0.00006538
     atom   68 type  1   force =    -0.01238436    0.12491997    0.00014155
     atom   69 type  1   force =    -0.01238436   -0.12491997   -0.00014155
     atom   70 type  1   force =     0.03706429    0.11931372    0.00006538
     atom   71 type  1   force =    -0.06215313   -0.10820365   -0.00000644
     atom   72 type  1   force =     0.08510442    0.09196353   -0.00002666
     atom   73 type  1   force =    -0.10167614   -0.07343486    0.00015408
     atom   74 type  1   force =     0.11428181    0.05167493   -0.00013058
     atom   75 type  1   force =    -0.12194090   -0.02733853    0.00011903
     atom   76 type  1   force =     0.12457555    0.00000000    0.00000000
     atom   77 type  1   force =    -0.12194096    0.02733875   -0.00011879
     atom   78 type  1   force =     0.11428161   -0.05167475    0.00013068
     atom   79 type  1   force =    -0.10167599    0.07343474   -0.00015406
     atom   80 type  1   force =     0.08510461   -0.09196341    0.00002669
     atom   81 type  1   force =    -0.06215331    0.10820420    0.00000629
     atom   82 type  1   force =     0.03706428   -0.11931392   -0.00006525
     atom   83 type  1   force =    -0.01238440    0.12492002    0.00014175
     atom   84 type  1   force =    -0.01238440   -0.12492002   -0.00014175
     atom   85 type  1   force =     0.03706428    0.11931392    0.00006525
     atom   86 type  1   force =    -0.06215331   -0.10820420   -0.00000629
     atom   87 type  1   force =     0.08510461    0.09196341   -0.00002669
     atom   88 type  1   force =    -0.10167599   -0.07343474    0.00015406
     atom   89 type  1   force =     0.11428161    0.05167475   -0.00013068
     atom   90 type  1   force =    -0.12194096   -0.02733875    0.00011879

     Total force =     6.110187     Total SCF correction =     0.001392


     Computing stress (Cartesian axis) and pressure

          total   stress  (Ry/bohr**3)                   (kbar)     P=      404.10
   0.00398711   0.00000000   0.00000000          586.52        0.00        0.00
   0.00000000   0.00398616   0.00000002            0.00      586.38        0.00
   0.00000000   0.00000002   0.00026783            0.00        0.00       39.40


     BFGS Geometry Optimization
     Energy error            =      5.1E+01 Ry
     Gradient error          =      7.8E-01 Ry/Bohr
     Cell gradient error     =      5.9E+02 kbar

     number of scf cycles    =   1
     number of bfgs steps    =   0

     enthalpy           new  =   -4103.7739850461 Ry

     new trust radius        =       0.5000000000 bohr
     new conv_thr            =       0.0000010000 Ry

     new unit-cell volume =   7816.95716 a.u.^3 (  1158.35354 Ang^3 )
     density =      2.15062 g/cm^3

CELL_PARAMETERS (alat= 10.74309302)
   1.029128198   0.000000000   0.000000000
   0.000000000   1.782490331   0.000000239
   0.000000000   0.000000474   3.436790530

ATOMIC_POSITIONS (crystal)
F                0.2655106822        0.0907293304        0.9970231007
F                0.2655106822        0.9092706696        0.0029768993
F                0.7076558070        0.9431163148        0.0636799803
F                0.7729806722        0.1205696554        0.0696461518
F                0.3063432973        0.0205197986        0.1303437602
F                0.1785927904        0.8548632535        0.1363138101
F                0.6929961041        0.0167282714        0.1970203880
F                0.8776076726        0.1634310513        0.2029893577
F                0.2943653697        0.9467745260        0.2636868516
F                0.0608448464        0.8253865096        0.2696531450
F                0.7311489108        0.0873906214        0.3303557409
F                1.0033379107        0.1781202372        0.3363111873
F                0.2314989814        0.8822718541        0.3970138652
F                0.9326520945        0.8262047701        0.4029790594
F                0.8160410813        0.1429096707        0.4636765078
F                0.1284088867        0.1618657743        0.4696470088
F                0.1284088867        0.8381342257        0.5303529912
F                0.8160410813        0.8570903293        0.5363234922
F                0.9326520945        0.1737952299        0.5970209406
F                0.2314989814        0.1177281459        0.6029861348
F                1.0033379107        0.8218797628        0.6636888127
F                0.7311489108        0.9126093786        0.6696442591
F                0.0608448464        0.1746134904        0.7303468550
F                0.2943653697        0.0532254740        0.7363131484
F                0.8776076726        0.8365689487        0.7970106423
F                0.6929961041        0.9832717286        0.8029796120
F                0.1785927904        0.1451367465        0.8636861899
F                0.3063432973        0.9794802014        0.8696562398
F                0.7729806722        0.8794303446        0.9303538482
F                0.7076558070        0.0568836852        0.9363200197
F                0.7655107100        0.5907293299        0.9970231018
F                0.7655107100        0.4092706701        0.0029768982
F                0.2076557785        0.4431163185        0.0636799811
F                0.2729807023        0.6205696482        0.0696461519
F                0.8063432951        0.5205197956        0.1303437622
F                0.6785927991        0.3548632550        0.1363138118
F                0.1929961002        0.5167282805        0.1970203894
F                0.3776076613        0.6634310508        0.2029893593
F                0.7943653380        0.4467745262        0.2636868539
F                0.5608448649        0.3253865130        0.2696531457
F                0.2311489345        0.5873906157        0.3303557426
F                0.5033378981        0.6781202205        0.3363111884
F                0.7314989823        0.3822718540        0.3970138654
F                0.4326521107        0.3262047752        0.4029790595
F                0.3160410871        0.6429096571        0.4636765062
F                0.6284088770        0.6618657576        0.4696470068
F                0.6284088770        0.3381342424        0.5303529932
F                0.3160410871        0.3570903429        0.5363234938
F                0.4326521107        0.6737952248        0.5970209405
F                0.7314989823        0.6177281460        0.6029861346
F                0.5033378981        0.3218797795        0.6636888116
F                0.2311489345        0.4126093843        0.6696442574
F                0.5608448649        0.6746134870        0.7303468543
F                0.7943653380        0.5532254738        0.7363131461
F                0.3776076613        0.3365689492        0.7970106407
F                0.1929961002        0.4832717195        0.8029796106
F                0.6785927991        0.6451367450        0.8636861882
F                0.8063432951        0.4794802044        0.8696562378
F                0.2729807023        0.3794303518        0.9303538481
F                0.2076557785        0.5568836815        0.9363200189
C                0.0763995903        0.0000000000        0.0000000000
C                0.9252670747        0.0091933395        0.0666660561
C                0.0698075898        0.9820434681        0.1333340355
C                0.9381672981        0.0259302620        0.1999987781
C                0.0511689330        0.9672297535        0.2666672114
C                0.9618033671        0.0382052904        0.3333333844
C                0.0235701891        0.9580362310        0.3999994815
C                0.9920311319        0.0438838128        0.4666681225
C                0.9920311319        0.9561161872        0.5333318775
C                0.0235701891        0.0419637690        0.6000005185
C                0.9618033671        0.9617947096        0.6666666156
C                0.0511689330        0.0327702465        0.7333327886
C                0.9381672981        0.9740697380        0.8000012219
C                0.0698075898        0.0179565319        0.8666659645
C                0.9252670747        0.9908066605        0.9333339439
C                0.5763995907        0.5000000000        0.0000000000
C                0.4252670731        0.5091933430        0.0666660580
C                0.5698075842        0.4820434709        0.1333340363
C                0.4381673023        0.5259302601        0.1999987783
C                0.5511689381        0.4672297554        0.2666672117
C                0.4618033623        0.5382052990        0.3333333832
C                0.5235701888        0.4580362277        0.3999994826
C                0.4920311308        0.5438838135        0.4666681241
C                0.4920311308        0.4561161865        0.5333318759
C                0.5235701888        0.5419637723        0.6000005174
C                0.4618033623        0.4617947010        0.6666666168
C                0.5511689381        0.5327702446        0.7333327883
C                0.4381673023        0.4740697399        0.8000012217
C                0.5698075842        0.5179565291        0.8666659637
C                0.4252670731        0.4908066570        0.9333339420



     Writing config-only to output data dir ./PTFE/PTFE_IV_rect_P1_twochains-vcrelax.save/ :
     XML data file
     NEW-OLD atomic charge density approx. for the potential
     New effective cutoffs (rho, wfc):  298.43   49.73

     Check: negative core charge=   -0.000003

     total cpu time spent up to now is     8575.3 secs

     Self-consistent Calculation

     iteration #  1     ecut=    50.00 Ry     beta= 0.50
     Davidson diagonalization with overlap
     ethr =  1.00E-06,  avg # of iterations = 13.0

     total cpu time spent up to now is    11146.2 secs

     total energy              =   -4110.82248966 Ry
     estimated scf accuracy    <       0.42587122 Ry

     iteration #  2     ecut=    50.00 Ry     beta= 0.50
     Davidson diagonalization with overlap
     ethr =  7.89E-05,  avg # of iterations =  2.0

     total cpu time spent up to now is    11610.3 secs

     total energy              =   -4110.82677085 Ry
     estimated scf accuracy    <       0.06101275 Ry

     iteration #  3     ecut=    50.00 Ry     beta= 0.50
     Davidson diagonalization with overlap
     ethr =  1.13E-05,  avg # of iterations =  2.2

     total cpu time spent up to now is    12133.7 secs

     total energy              =   -4110.83036667 Ry
     estimated scf accuracy    <       0.01013126 Ry

     iteration #  4     ecut=    50.00 Ry     beta= 0.50
     Davidson diagonalization with overlap
     ethr =  1.88E-06,  avg # of iterations =  4.6

     total cpu time spent up to now is    12778.4 secs

     total energy              =   -4110.83230100 Ry
     estimated scf accuracy    <       0.00101652 Ry

     iteration #  5     ecut=    50.00 Ry     beta= 0.50
     Davidson diagonalization with overlap
     ethr =  1.88E-07,  avg # of iterations =  4.0

     total cpu time spent up to now is    13349.7 secs

     total energy              =   -4110.83234804 Ry
     estimated scf accuracy    <       0.00021802 Ry

     iteration #  6     ecut=    50.00 Ry     beta= 0.50
     Davidson diagonalization with overlap
     ethr =  4.04E-08,  avg # of iterations =  5.0

     total cpu time spent up to now is    14112.0 secs

     total energy              =   -4110.83237718 Ry
     estimated scf accuracy    <       0.00021882 Ry

     iteration #  7     ecut=    50.00 Ry     beta= 0.50
     Davidson diagonalization with overlap
     ethr =  4.04E-08,  avg # of iterations =  3.5

     total cpu time spent up to now is    14706.9 secs

     total energy              =   -4110.83243922 Ry
     estimated scf accuracy    <       0.00001361 Ry

     iteration #  8     ecut=    50.00 Ry     beta= 0.50
     Davidson diagonalization with overlap
     ethr =  2.52E-09,  avg # of iterations =  2.0

     total cpu time spent up to now is    15171.7 secs

     total energy              =   -4110.83243701 Ry
     estimated scf accuracy    <       0.00000811 Ry

     iteration #  9     ecut=    50.00 Ry     beta= 0.50
     Davidson diagonalization with overlap
     ethr =  1.50E-09,  avg # of iterations =  3.0

     total cpu time spent up to now is    15703.3 secs

     End of self-consistent calculation

          k = 0.0000 0.0000 0.0000 ( 43951 PWs)   bands (ev):

   -25.4890 -25.4361 -25.4037 -25.4033 -25.3505 -25.3421 -25.1864 -25.1863
   -25.1451 -25.1416 -25.1076 -25.0684 -25.0207 -25.0202 -24.9885 -24.9822
   -24.9514 -24.9468 -24.9422 -24.9267 -24.9264 -24.9213 -24.8634 -24.8604
   -24.8279 -24.8278 -24.8182 -24.8182 -24.8121 -24.8121 -22.3571 -22.3390
   -22.2961 -22.2954 -22.2712 -22.2656 -22.2622 -22.2109 -22.1964 -22.1955
   -22.1953 -22.1790 -22.1782 -22.1656 -22.1608 -22.1469 -22.1467 -22.1235
   -22.1187 -22.1184 -22.1097 -22.1077 -22.0959 -22.0951 -22.0949 -22.0904
   -22.0878 -22.0850 -22.0778 -22.0486 -14.7747 -14.7009 -14.5766 -14.5766
   -14.5074 -14.5027 -13.9861 -13.9861 -13.9475 -13.9428 -13.0098 -13.0081
   -13.0062 -13.0030 -11.6812 -11.6800 -11.6327 -11.6327 -10.0810 -10.0676
    -9.9454  -9.9454  -9.3531  -9.2009  -9.1286  -9.0525  -8.9327  -8.8210
    -8.8205  -8.8078  -8.2645  -8.2386  -8.2385  -8.2381  -8.1385  -8.1383
    -8.0542  -8.0505  -7.8932  -7.8666  -7.6864  -7.6838  -7.5405  -7.5403
    -7.5380  -7.5109  -7.4971  -7.4929  -7.3103  -7.2875  -7.2871  -7.2669
    -7.2405  -7.2164  -7.1819  -7.1562  -7.1556  -7.0637  -7.0006  -6.9026
    -6.8758  -6.8663  -6.8223  -6.6497  -6.5123  -6.5021  -6.4690  -6.4690
    -6.1152  -6.1152  -6.0754  -6.0750  -5.9607  -5.9597  -5.9390  -5.9387
    -5.8735  -5.7647  -5.7299  -5.7185  -5.7019  -5.7013  -5.5373  -5.5188
    -5.4197  -5.4072  -5.3892  -5.3884  -5.2781  -5.1873  -4.8820  -4.8602
    -4.8600  -4.8411  -4.8220  -4.8217  -4.7359  -4.7271  -4.7271  -4.7193
    -4.6364  -4.6352  -4.6233  -4.6231  -4.6140  -4.5831  -4.5571  -4.5455
    -4.5083  -4.4693  -4.4423  -4.4231  -4.4226  -4.4145  -4.4145  -4.3705
    -4.3433  -4.2919  -4.1666  -4.0287  -3.7860  -3.7846  -3.6542  -3.6400
    -3.5889  -3.5851  -3.5705  -3.5700  -3.5205  -3.5204  -3.5000  -3.4786
    -3.4535  -3.4534  -3.3991  -3.3892  -3.3891  -3.3350  -3.1010  -3.1006
    -2.9941  -2.9941  -2.9876  -2.9836  -2.9362  -2.9361  -2.9177  -2.9161
    -2.8811  -2.8810  -2.8100  -2.8020  -2.7625  -2.7624  -2.6940  -2.6860
    -2.6435  -2.6435  -2.6258  -2.6109  -2.6085  -2.5766  -2.4000  -2.3565
    -2.3254  -2.3253  -2.2904  -2.2899  -2.2587  -2.2410  -2.2399  -2.1814
    -2.0018  -1.9964  -1.9897  -1.9797  -1.3642  -1.2572  -1.2010  -1.2006
    -1.1108  -1.1086  -1.0709  -1.0571  -1.0416  -1.0364  -1.0286  -1.0282
    -1.0277  -1.0233  -1.0224  -1.0184  -1.0013  -0.9938  -0.9892  -0.9814
    -0.9811  -0.9801  -0.9739  -0.9626  -0.9614  -0.9554  -0.9541  -0.9533
    -0.8918  -0.8810  -0.8754  -0.8714  -0.8710  -0.8592

          k = 0.0000 0.0000-0.1455 ( 43906 PWs)   bands (ev):

   -25.4671 -25.4668 -25.4268 -25.3943 -25.3137 -25.2977 -25.2585 -25.2512
   -25.1107 -25.0618 -25.0616 -25.0458 -25.0369 -25.0330 -25.0297 -25.0266
   -24.9856 -24.9851 -24.9218 -24.9194 -24.8754 -24.8751 -24.8613 -24.8613
   -24.8543 -24.8535 -24.8238 -24.8221 -24.8044 -24.8012 -22.3591 -22.3335
   -22.3026 -22.2901 -22.2787 -22.2780 -22.2259 -22.2215 -22.2066 -22.2062
   -22.1882 -22.1789 -22.1784 -22.1638 -22.1636 -22.1384 -22.1383 -22.1283
   -22.1226 -22.1178 -22.1100 -22.1090 -22.1018 -22.1016 -22.0862 -22.0861
   -22.0842 -22.0840 -22.0835 -22.0487 -14.7252 -14.7250 -14.6737 -14.6250
   -14.3373 -14.3227 -14.2819 -14.2623 -13.5452 -13.5452 -13.5268 -13.5216
   -12.3927 -12.3913 -12.3684 -12.3683 -10.8907 -10.8862 -10.8139 -10.8075
    -9.4700  -9.4318  -9.2813  -9.2014  -9.2014  -9.1349  -9.0546  -8.8255
    -8.8111  -8.8109  -8.2330  -8.2011  -8.1946  -8.1900  -8.0824  -8.0823
    -8.0770  -8.0672  -8.0250  -8.0249  -7.8807  -7.8774  -7.7086  -7.7086
    -7.5092  -7.4515  -7.4247  -7.3595  -7.2562  -7.2338  -7.2334  -7.1944
    -7.1703  -7.1567  -7.1491  -7.1487  -7.1181  -7.1008  -6.9886  -6.8758
    -6.7459  -6.6701  -6.6602  -6.6601  -6.5652  -6.5362  -6.4893  -6.4892
    -6.3146  -6.2881  -6.2757  -6.2572  -5.9507  -5.9504  -5.8839  -5.8788
    -5.7312  -5.7309  -5.7252  -5.7142  -5.6929  -5.6310  -5.5769  -5.5037
    -5.4199  -5.4012  -5.4005  -5.3830  -5.2781  -5.1873  -4.8715  -4.8713
    -4.8577  -4.8405  -4.8190  -4.8188  -4.7699  -4.7394  -4.7206  -4.6887
    -4.6652  -4.6352  -4.6277  -4.6089  -4.6041  -4.5662  -4.5659  -4.4989
    -4.4983  -4.4727  -4.4657  -4.4438  -4.4422  -4.4236  -4.3867  -4.3861
    -4.3247  -4.3243  -4.1409  -4.0345  -3.7826  -3.7818  -3.6829  -3.6795
    -3.5691  -3.5562  -3.5561  -3.5395  -3.5376  -3.5375  -3.4818  -3.4727
    -3.4505  -3.4126  -3.3881  -3.3821  -3.3586  -3.3583  -3.2330  -3.2229
    -2.9786  -2.9746  -2.9444  -2.9423  -2.9257  -2.9257  -2.9028  -2.8982
    -2.8527  -2.8394  -2.8288  -2.8281  -2.8280  -2.8202  -2.7501  -2.7501
    -2.5337  -2.5261  -2.5023  -2.4740  -2.4601  -2.4590  -2.4348  -2.4347
    -2.4164  -2.4092  -2.4089  -2.3876  -2.2786  -2.2718  -2.2484  -2.2190
    -2.2186  -2.1910  -1.5410  -1.5408  -1.5379  -1.5149  -1.3240  -1.1304
    -1.1225  -1.1167  -1.0875  -1.0776  -1.0542  -1.0537  -1.0398  -1.0272
    -1.0265  -1.0211  -1.0189  -1.0038  -0.9967  -0.9907  -0.9867  -0.9818
    -0.9815  -0.9803  -0.9743  -0.9628  -0.9621  -0.9561  -0.9075  -0.8918
    -0.8823  -0.8742  -0.8737  -0.8709  -0.8631  -0.8589

          k = 0.0000-0.2805 0.0000 ( 43982 PWs)   bands (ev):

   -25.4634 -25.4634 -25.3793 -25.3793 -25.3773 -25.3773 -25.1681 -25.1681
   -25.1676 -25.1676 -25.0583 -25.0583 -25.0416 -25.0416 -24.9615 -24.9615
   -24.9524 -24.9524 -24.9400 -24.9400 -24.9372 -24.9372 -24.8435 -24.8435
   -24.8429 -24.8429 -24.8154 -24.8154 -24.8150 -24.8150 -22.3292 -22.3292
   -22.3192 -22.3192 -22.2649 -22.2649 -22.2525 -22.2525 -22.2003 -22.2003
   -22.1832 -22.1832 -22.1545 -22.1545 -22.1518 -22.1518 -22.1347 -22.1347
   -22.1143 -22.1143 -22.1052 -22.1052 -22.0989 -22.0989 -22.0922 -22.0922
   -22.0827 -22.0827 -22.0742 -22.0742 -14.7368 -14.7368 -14.5424 -14.5424
   -14.5413 -14.5413 -13.9670 -13.9670 -13.9653 -13.9653 -13.0082 -13.0082
   -13.0056 -13.0056 -11.6570 -11.6570 -11.6565 -11.6565 -10.0132 -10.0132
   -10.0071 -10.0071  -9.1155  -9.1155  -9.0657  -9.0657  -8.9801  -8.9801
    -8.9516  -8.9516  -8.2602  -8.2602  -8.2427  -8.2427  -8.1008  -8.1008
    -8.0940  -8.0940  -7.7794  -7.7794  -7.7716  -7.7716  -7.5161  -7.5161
    -7.5041  -7.5041  -7.4087  -7.4086  -7.3980  -7.3980  -7.2117  -7.2117
    -7.2055  -7.2055  -7.1431  -7.1431  -7.0979  -7.0979  -7.0303  -7.0303
    -6.8623  -6.8623  -6.7781  -6.7781  -6.5111  -6.5111  -6.4965  -6.4965
    -6.1027  -6.1027  -6.0853  -6.0853  -5.9711  -5.9711  -5.9585  -5.9585
    -5.7551  -5.7551  -5.7340  -5.7340  -5.5669  -5.5669  -5.5294  -5.5294
    -5.4430  -5.4430  -5.3601  -5.3601  -5.3456  -5.3456  -4.8708  -4.8708
    -4.8521  -4.8521  -4.7944  -4.7944  -4.7816  -4.7816  -4.7073  -4.7073
    -4.6988  -4.6988  -4.5876  -4.5876  -4.5806  -4.5806  -4.5289  -4.5289
    -4.5046  -4.5046  -4.4880  -4.4880  -4.4284  -4.4284  -4.3780  -4.3780
    -4.2364  -4.2364  -4.1256  -4.1256  -3.6820  -3.6820  -3.6780  -3.6780
    -3.5898  -3.5898  -3.5807  -3.5807  -3.5103  -3.5103  -3.5054  -3.5054
    -3.4608  -3.4608  -3.4489  -3.4489  -3.3706  -3.3706  -3.0452  -3.0452
    -3.0424  -3.0424  -2.9606  -2.9606  -2.9590  -2.9590  -2.9011  -2.9011
    -2.8986  -2.8986  -2.7786  -2.7786  -2.7766  -2.7766  -2.6745  -2.6745
    -2.6698  -2.6698  -2.6058  -2.6058  -2.5988  -2.5988  -2.3682  -2.3682
    -2.3483  -2.3483  -2.2690  -2.2690  -2.2673  -2.2673  -2.2019  -2.2019
    -1.9920  -1.9920  -1.9843  -1.9843  -1.2512  -1.2512  -1.2231  -1.2231
    -1.0833  -1.0833  -1.0726  -1.0726  -1.0522  -1.0522  -1.0315  -1.0315
    -1.0238  -1.0238  -1.0133  -1.0133  -1.0073  -1.0073  -0.9983  -0.9983
    -0.9844  -0.9844  -0.9624  -0.9624  -0.9428  -0.9428  -0.9283  -0.9283
    -0.9130  -0.9130  -0.9089  -0.9089  -0.8713  -0.8713

          k = 0.0000-0.2805-0.1455 ( 44012 PWs)   bands (ev):

   -25.4476 -25.4476 -25.4345 -25.4345 -25.2867 -25.2867 -25.2800 -25.2800
   -25.0673 -25.0673 -25.0478 -25.0478 -25.0447 -25.0447 -25.0133 -25.0133
   -25.0086 -25.0086 -24.8971 -24.8971 -24.8949 -24.8949 -24.8585 -24.8585
   -24.8582 -24.8582 -24.8126 -24.8126 -24.8117 -24.8117 -22.3330 -22.3330
   -22.3098 -22.3098 -22.2834 -22.2834 -22.2235 -22.2235 -22.2194 -22.2194
   -22.1824 -22.1824 -22.1640 -22.1640 -22.1324 -22.1324 -22.1266 -22.1266
   -22.1257 -22.1257 -22.1177 -22.1177 -22.0916 -22.0916 -22.0884 -22.0884
   -22.0847 -22.0847 -22.0752 -22.0752 -14.6993 -14.6993 -14.6756 -14.6756
   -14.3028 -14.3028 -14.3006 -14.3006 -13.5362 -13.5362 -13.5337 -13.5337
   -12.3806 -12.3806 -12.3800 -12.3800 -10.8505 -10.8505 -10.8492 -10.8492
    -9.3228  -9.3228  -9.3196  -9.3196  -9.0928  -9.0928  -8.9826  -8.9826
    -8.9475  -8.9475  -8.2128  -8.2128  -8.2061  -8.2061  -8.0842  -8.0842
    -8.0786  -8.0786  -7.9515  -7.9515  -7.9470  -7.9470  -7.6029  -7.6029
    -7.5687  -7.5687  -7.2772  -7.2772  -7.2459  -7.2459  -7.2184  -7.2184
    -7.1698  -7.1698  -7.1248  -7.1248  -7.0741  -7.0741  -7.0300  -7.0300
    -6.7238  -6.7238  -6.6654  -6.6654  -6.5442  -6.5442  -6.5254  -6.5254
    -6.3021  -6.3021  -6.2878  -6.2878  -5.9137  -5.9137  -5.8956  -5.8956
    -5.7375  -5.7375  -5.6474  -5.6474  -5.6025  -5.6025  -5.5154  -5.5154
    -5.4440  -5.4440  -5.3598  -5.3598  -5.3456  -5.3456  -4.8640  -4.8640
    -4.8477  -4.8477  -4.8077  -4.8077  -4.7999  -4.7999  -4.7047  -4.7047
    -4.6606  -4.6606  -4.6293  -4.6293  -4.5486  -4.5486  -4.5246  -4.5246
    -4.5090  -4.5090  -4.4741  -4.4741  -4.4301  -4.4301  -4.4217  -4.4217
    -4.2072  -4.2072  -4.1358  -4.1358  -3.6727  -3.6727  -3.6672  -3.6672
    -3.6139  -3.6139  -3.6103  -3.6103  -3.5232  -3.5232  -3.5157  -3.5157
    -3.4092  -3.4092  -3.3902  -3.3902  -3.3015  -3.3015  -3.3002  -3.3002
    -2.9505  -2.9505  -2.9489  -2.9489  -2.9216  -2.9216  -2.9173  -2.9173
    -2.8369  -2.8369  -2.8329  -2.8329  -2.7938  -2.7938  -2.7875  -2.7875
    -2.5178  -2.5178  -2.5079  -2.5079  -2.4453  -2.4453  -2.4401  -2.4401
    -2.4097  -2.4097  -2.3917  -2.3917  -2.2674  -2.2674  -2.2466  -2.2466
    -2.2004  -2.2004  -1.5331  -1.5331  -1.5255  -1.5255  -1.2021  -1.2021
    -1.0911  -1.0911  -1.0865  -1.0865  -1.0612  -1.0612  -1.0569  -1.0569
    -1.0211  -1.0211  -1.0116  -1.0116  -1.0005  -1.0005  -0.9912  -0.9912
    -0.9731  -0.9731  -0.9433  -0.9433  -0.9314  -0.9314  -0.9132  -0.9132
    -0.9100  -0.9100  -0.8919  -0.8919  -0.8711  -0.8711

          k =-0.4858 0.0000 0.0000 ( 44028 PWs)   bands (ev):

   -25.4331 -25.4331 -25.3505 -25.3505 -25.3477 -25.3477 -25.1469 -25.1469
   -25.1443 -25.1443 -25.0924 -25.0924 -25.0743 -25.0743 -24.9877 -24.9877
   -24.9834 -24.9834 -24.9274 -24.9274 -24.9273 -24.9273 -24.8620 -24.8620
   -24.8608 -24.8608 -24.8188 -24.8188 -24.8187 -24.8187 -22.3470 -22.3470
   -22.3421 -22.3421 -22.2821 -22.2821 -22.2691 -22.2691 -22.1860 -22.1860
   -22.1839 -22.1839 -22.1529 -22.1529 -22.1432 -22.1432 -22.1287 -22.1287
   -22.1092 -22.1092 -22.1040 -22.1040 -22.0914 -22.0914 -22.0811 -22.0811
   -22.0744 -22.0744 -22.0663 -22.0663 -14.6970 -14.6970 -14.5082 -14.5082
   -14.5059 -14.5059 -13.9468 -13.9468 -13.9445 -13.9445 -13.0081 -13.0081
   -13.0064 -13.0064 -11.6807 -11.6807 -11.6802 -11.6802 -10.0758 -10.0758
   -10.0696 -10.0696  -9.2507  -9.2507  -9.2375  -9.2375  -9.1507  -9.1507
    -9.1053  -9.1053  -8.2595  -8.2595  -8.2477  -8.2477  -8.0530  -8.0530
    -8.0487  -8.0487  -7.6827  -7.6827  -7.6798  -7.6798  -7.4974  -7.4974
    -7.4918  -7.4918  -7.3303  -7.3303  -7.3263  -7.3263  -7.1985  -7.1985
    -7.1947  -7.1947  -7.0389  -7.0389  -6.9792  -6.9792  -6.9631  -6.9631
    -6.8217  -6.8217  -6.7788  -6.7788  -6.5091  -6.5091  -6.4988  -6.4988
    -6.0791  -6.0791  -6.0745  -6.0745  -5.9677  -5.9677  -5.9660  -5.9660
    -5.7161  -5.7161  -5.7132  -5.7132  -5.5270  -5.5270  -5.4633  -5.4633
    -5.3846  -5.3846  -5.2748  -5.2748  -5.2729  -5.2729  -4.8392  -4.8392
    -4.8236  -4.8236  -4.7677  -4.7677  -4.7519  -4.7519  -4.6701  -4.6701
    -4.6386  -4.6386  -4.6211  -4.6211  -4.5572  -4.5572  -4.5499  -4.5499
    -4.4961  -4.4961  -4.4915  -4.4915  -4.4591  -4.4591  -4.2566  -4.2566
    -4.2154  -4.2154  -4.0471  -4.0471  -3.7617  -3.7617  -3.7607  -3.7607
    -3.6566  -3.6566  -3.6509  -3.6509  -3.5817  -3.5817  -3.5810  -3.5810
    -3.5069  -3.5069  -3.4849  -3.4849  -3.4056  -3.4056  -3.1100  -3.1100
    -3.1082  -3.1082  -2.9867  -2.9867  -2.9850  -2.9850  -2.9266  -2.9266
    -2.9215  -2.9215  -2.8011  -2.8011  -2.7950  -2.7950  -2.6959  -2.6959
    -2.6935  -2.6935  -2.6246  -2.6246  -2.6084  -2.6084  -2.3925  -2.3925
    -2.3751  -2.3751  -2.2611  -2.2611  -2.2464  -2.2464  -2.2255  -2.2255
    -1.9963  -1.9963  -1.9727  -1.9727  -1.3194  -1.3194  -1.2982  -1.2982
    -1.1579  -1.1579  -1.1093  -1.1093  -1.0667  -1.0667  -1.0595  -1.0595
    -1.0276  -1.0276  -1.0156  -1.0156  -1.0126  -1.0126  -0.9963  -0.9963
    -0.9721  -0.9721  -0.9611  -0.9611  -0.9449  -0.9449  -0.9282  -0.9282
    -0.8843  -0.8843  -0.8794  -0.8794  -0.8753  -0.8753

          k =-0.4858 0.0000-0.1455 ( 43908 PWs)   bands (ev):

   -25.4192 -25.4192 -25.4024 -25.4024 -25.2600 -25.2600 -25.2540 -25.2540
   -25.1005 -25.1005 -25.0448 -25.0448 -25.0430 -25.0430 -25.0300 -25.0300
   -25.0261 -25.0261 -24.9206 -24.9206 -24.9200 -24.9200 -24.8542 -24.8542
   -24.8541 -24.8541 -24.8243 -24.8243 -24.8223 -24.8223 -22.3532 -22.3532
   -22.3283 -22.3283 -22.3048 -22.3048 -22.2372 -22.2372 -22.2231 -22.2231
   -22.1569 -22.1569 -22.1500 -22.1500 -22.1441 -22.1441 -22.1364 -22.1364
   -22.1160 -22.1160 -22.1013 -22.1013 -22.0867 -22.0867 -22.0821 -22.0821
   -22.0742 -22.0742 -22.0672 -22.0672 -14.6611 -14.6611 -14.6365 -14.6365
   -14.2828 -14.2828 -14.2633 -14.2633 -13.5257 -13.5257 -13.5232 -13.5232
   -12.3923 -12.3923 -12.3916 -12.3916 -10.8901 -10.8901 -10.8861 -10.8861
    -9.4359  -9.4359  -9.4246  -9.4246  -9.2492  -9.2492  -9.1676  -9.1676
    -9.1022  -9.1022  -8.1959  -8.1959  -8.1885  -8.1885  -8.0781  -8.0781
    -8.0718  -8.0718  -7.8773  -7.8773  -7.8725  -7.8725  -7.4966  -7.4966
    -7.4637  -7.4637  -7.3039  -7.3039  -7.2075  -7.2075  -7.1758  -7.1758
    -7.1201  -7.1201  -7.0527  -7.0527  -6.9394  -6.9394  -6.9279  -6.9279
    -6.7128  -6.7128  -6.6641  -6.6641  -6.5539  -6.5539  -6.5397  -6.5397
    -6.2930  -6.2930  -6.2824  -6.2824  -5.8787  -5.8787  -5.8785  -5.8785
    -5.7327  -5.7327  -5.6075  -5.6075  -5.5734  -5.5734  -5.4505  -5.4505
    -5.3855  -5.3855  -5.2758  -5.2758  -5.2721  -5.2721  -4.8312  -4.8312
    -4.8197  -4.8197  -4.7816  -4.7816  -4.7617  -4.7617  -4.6721  -4.6721
    -4.6395  -4.6395  -4.6092  -4.6092  -4.5795  -4.5795  -4.5345  -4.5345
    -4.4798  -4.4798  -4.4659  -4.4659  -4.4493  -4.4493  -4.3589  -4.3589
    -4.1398  -4.1398  -4.0643  -4.0643  -3.7580  -3.7580  -3.7575  -3.7575
    -3.6804  -3.6804  -3.6760  -3.6760  -3.5789  -3.5789  -3.5601  -3.5601
    -3.4442  -3.4442  -3.4252  -3.4252  -3.3865  -3.3865  -3.3785  -3.3785
    -2.9789  -2.9789  -2.9787  -2.9787  -2.9479  -2.9479  -2.9449  -2.9449
    -2.8520  -2.8520  -2.8485  -2.8485  -2.8313  -2.8313  -2.8272  -2.8272
    -2.5399  -2.5399  -2.5284  -2.5284  -2.4643  -2.4643  -2.4526  -2.4526
    -2.4074  -2.4074  -2.3885  -2.3885  -2.2808  -2.2808  -2.2777  -2.2777
    -2.1848  -2.1848  -1.5269  -1.5269  -1.5187  -1.5187  -1.2985  -1.2985
    -1.1703  -1.1703  -1.1520  -1.1520  -1.0948  -1.0948  -1.0780  -1.0780
    -1.0435  -1.0435  -1.0288  -1.0288  -1.0001  -1.0001  -0.9909  -0.9909
    -0.9532  -0.9532  -0.9522  -0.9522  -0.9284  -0.9284  -0.8875  -0.8875
    -0.8800  -0.8800  -0.8787  -0.8787  -0.8615  -0.8615

          k =-0.4858-0.2805 0.0000 ( 43984 PWs)   bands (ev):

   -25.4364 -25.4364 -25.3502 -25.3502 -25.3422 -25.3422 -25.1451 -25.1451
   -25.1415 -25.1415 -25.1074 -25.1074 -25.0684 -25.0684 -24.9884 -24.9884
   -24.9824 -24.9824 -24.9267 -24.9267 -24.9264 -24.9264 -24.8633 -24.8633
   -24.8605 -24.8605 -24.8183 -24.8183 -24.8182 -24.8182 -22.3567 -22.3567
   -22.3398 -22.3398 -22.2713 -22.2713 -22.2619 -22.2619 -22.1789 -22.1789
   -22.1783 -22.1783 -22.1652 -22.1652 -22.1602 -22.1602 -22.1239 -22.1239
   -22.1096 -22.1096 -22.1077 -22.1077 -22.0962 -22.0962 -22.0857 -22.0857
   -22.0779 -22.0779 -22.0480 -22.0480 -14.7010 -14.7010 -14.5074 -14.5074
   -14.5027 -14.5027 -13.9475 -13.9475 -13.9428 -13.9428 -13.0081 -13.0081
   -13.0062 -13.0062 -11.6812 -11.6812 -11.6800 -11.6800 -10.0810 -10.0810
   -10.0676 -10.0676  -9.3528  -9.3528  -9.2005  -9.2005  -9.1286  -9.1286
    -9.0531  -9.0531  -8.2646  -8.2646  -8.2381  -8.2381  -8.0543  -8.0543
    -8.0505  -8.0505  -7.6865  -7.6865  -7.6838  -7.6838  -7.4971  -7.4971
    -7.4929  -7.4929  -7.3101  -7.3101  -7.2672  -7.2672  -7.2401  -7.2401
    -7.1824  -7.1824  -7.0634  -7.0634  -7.0012  -7.0012  -6.8756  -6.8756
    -6.8663  -6.8663  -6.8223  -6.8223  -6.5123  -6.5123  -6.5021  -6.5021
    -6.0754  -6.0754  -6.0750  -6.0750  -5.9605  -5.9605  -5.9599  -5.9599
    -5.7296  -5.7296  -5.7185  -5.7185  -5.5368  -5.5368  -5.5188  -5.5188
    -5.4200  -5.4200  -5.2791  -5.2791  -5.1867  -5.1867  -4.8608  -4.8608
    -4.8417  -4.8417  -4.7357  -4.7357  -4.7191  -4.7191  -4.6359  -4.6359
    -4.6353  -4.6353  -4.6136  -4.6136  -4.5830  -4.5830  -4.5568  -4.5568
    -4.5084  -4.5084  -4.4692  -4.4692  -4.4430  -4.4430  -4.3433  -4.3433
[...]
    -6.6034  -6.6034  -6.5039  -6.5039  -6.4472  -6.4472  -6.4259  -6.4259
    -6.2385  -6.2385  -6.2149  -6.2148  -6.1351  -6.1351  -6.1270  -6.1270
    -6.1162  -6.1162  -6.0203  -6.0203  -6.0168  -6.0168  -4.2581  -4.2581
    -4.2542  -4.2542  -4.2041  -4.2041  -4.2010  -4.2010  -4.1409  -4.1409
    -4.1391  -4.1391  -3.9673  -3.9673  -3.9447  -3.9447  -3.9029  -3.9029
    -3.8726  -3.8726  -3.8276  -3.8276  -3.7335  -3.7335  -3.7322  -3.7322
    -3.7118  -3.7118  -3.6727  -3.6727  -3.6657  -3.6657  -3.6090  -3.6090
    -3.6083  -3.6083  -3.4381  -3.4381  -3.4339  -3.4339  -3.3545  -3.3545
    -3.3468  -3.3468  -3.2714  -3.2714  -3.2638  -3.2638  -3.2595  -3.2595
    -3.2304  -3.2304  -3.1049  -3.1049  -3.0602  -3.0602  -3.0129  -3.0129
    -3.0034  -3.0034  -2.6826  -2.6826  -2.6476  -2.6475  -2.6327  -2.6327
    -2.6318  -2.6318  -2.5780  -2.5779  -2.5767  -2.5767  -2.5524  -2.5524
    -2.5463  -2.5463  -2.5027  -2.5027  -2.5005  -2.5005  -2.4917  -2.4917
    -2.4861  -2.4861  -2.4435  -2.4435  -2.4192  -2.4192  -2.3964  -2.3964
    -2.3883  -2.3883  -2.3775  -2.3775  -2.3525  -2.3525  -2.3217  -2.3217
    -2.3214  -2.3214  -2.3094  -2.3094  -2.2806  -2.2805  -2.1511  -2.1510
    -2.1497  -2.1497  -1.6541  -1.6541  -1.6482  -1.6482  -0.7677  -0.7677
    -0.7440  -0.7440   0.1001   0.1001   0.1043   0.1043

          k =-0.5007-0.0000-0.1439 ( 44492 PWs)   bands (ev):

   -25.4986 -25.4986 -25.4953 -25.4953 -25.3197 -25.3197 -25.3146 -25.3145
   -25.0336 -25.0336 -25.0328 -25.0328 -24.7724 -24.7724 -24.7718 -24.7718
   -24.7423 -24.7423 -24.7151 -24.7151 -24.7050 -24.7050 -24.6501 -24.6501
   -24.6469 -24.6469 -24.6433 -24.6433 -24.6381 -24.6381 -23.7489 -23.7488
   -23.7016 -23.7016 -23.6883 -23.6883 -23.5607 -23.5607 -23.5605 -23.5605
   -23.4076 -23.4076 -23.4060 -23.4060 -23.2886 -23.2886 -23.2884 -23.2884
   -23.2478 -23.2478 -23.2410 -23.2410 -23.2328 -23.2328 -23.2313 -23.2313
   -23.2189 -23.2189 -23.2147 -23.2147 -13.1425 -13.1425 -13.1332 -13.1332
   -12.8833 -12.8833 -12.8725 -12.8725 -12.3629 -12.3629 -12.3594 -12.3594
   -11.5550 -11.5550 -11.5534 -11.5534 -10.4097 -10.4097 -10.3976 -10.3976
    -9.1550  -9.1550  -9.1328  -9.1328  -8.8056  -8.8056  -8.7748  -8.7748
    -8.7277  -8.7277  -7.9053  -7.9053  -7.8931  -7.8931  -7.8466  -7.8466
    -7.8358  -7.8358  -7.6861  -7.6861  -7.6319  -7.6319  -7.6196  -7.6196
    -7.6075  -7.6075  -7.5412  -7.5412  -7.3245  -7.3245  -7.3082  -7.3082
    -7.1732  -7.1732  -7.1660  -7.1660  -6.9753  -6.9753  -6.9682  -6.9682
    -6.7682  -6.7682  -6.7300  -6.7300  -6.7017  -6.7017  -6.6829  -6.6829
    -6.6134  -6.6134  -6.6079  -6.6079  -6.5433  -6.5433  -6.4919  -6.4919
    -6.3042  -6.3042  -6.3029  -6.3029  -6.1582  -6.1582  -6.1388  -6.1388
    -6.0196  -6.0196  -6.0180  -6.0180  -5.9174  -5.9174  -4.2653  -4.2652
    -4.2615  -4.2615  -4.1924  -4.1924  -4.1917  -4.1917  -4.1115  -4.1115
    -4.1053  -4.1053  -4.0552  -4.0552  -4.0265  -4.0265  -3.8943  -3.8943
    -3.8046  -3.8046  -3.7870  -3.7870  -3.7701  -3.7701  -3.7364  -3.7364
    -3.6979  -3.6979  -3.6802  -3.6802  -3.5947  -3.5947  -3.5847  -3.5847
    -3.5134  -3.5134  -3.5097  -3.5097  -3.4972  -3.4972  -3.4875  -3.4875
    -3.3502  -3.3502  -3.3476  -3.3476  -3.1840  -3.1840  -3.1633  -3.1633
    -3.1395  -3.1395  -3.1219  -3.1219  -3.0702  -3.0702  -3.0519  -3.0518
    -3.0372  -3.0372  -2.6729  -2.6729  -2.6600  -2.6600  -2.6227  -2.6227
    -2.6220  -2.6220  -2.5920  -2.5920  -2.5911  -2.5911  -2.5455  -2.5455
    -2.5357  -2.5357  -2.5305  -2.5305  -2.4870  -2.4870  -2.4716  -2.4716
    -2.4603  -2.4603  -2.4590  -2.4589  -2.4346  -2.4346  -2.4163  -2.4163
    -2.3729  -2.3728  -2.3655  -2.3654  -2.3531  -2.3531  -2.3468  -2.3468
    -2.3072  -2.3072  -2.3052  -2.3052  -2.2543  -2.2543  -2.2470  -2.2470
    -1.9632  -1.9632  -1.9557  -1.9557  -1.2369  -1.2369  -1.2334  -1.2334
    -0.2842  -0.2841  -0.2732  -0.2731   0.2554   0.2554

          k =-0.5007-0.2892-0.0000 ( 44428 PWs)   bands (ev):

   -25.5214 -25.5214 -25.4329 -25.4329 -25.4196 -25.4196 -25.1822 -25.1822
   -25.1791 -25.1791 -24.8922 -24.8922 -24.8903 -24.8903 -24.7449 -24.7449
   -24.7269 -24.7269 -24.6891 -24.6891 -24.6889 -24.6888 -24.6762 -24.6762
   -24.6751 -24.6750 -24.6322 -24.6322 -24.6293 -24.6293 -23.7387 -23.7387
   -23.7329 -23.7329 -23.6320 -23.6320 -23.6317 -23.6317 -23.4827 -23.4827
   -23.4795 -23.4795 -23.3411 -23.3411 -23.3401 -23.3401 -23.2663 -23.2663
   -23.2582 -23.2582 -23.2518 -23.2518 -23.2391 -23.2391 -23.2193 -23.2193
   -23.2177 -23.2177 -23.2054 -23.2054 -13.1716 -13.1716 -13.0583 -13.0583
   -13.0204 -13.0204 -12.6589 -12.6589 -12.6449 -12.6449 -11.9986 -11.9985
   -11.9973 -11.9973 -11.0230 -11.0229 -11.0210 -11.0210  -9.7393  -9.7393
    -9.7338  -9.7338  -8.8952  -8.8952  -8.8660  -8.8660  -8.7302  -8.7302
    -8.7227  -8.7227  -7.9523  -7.9523  -7.9463  -7.9463  -7.7849  -7.7849
    -7.7757  -7.7757  -7.6860  -7.6860  -7.6640  -7.6640  -7.5229  -7.5229
    -7.4551  -7.4551  -7.4202  -7.4202  -7.4191  -7.4191  -7.3053  -7.3053
    -7.2961  -7.2960  -7.1243  -7.1243  -7.1230  -7.1230  -6.9837  -6.9837
    -6.9584  -6.9584  -6.7815  -6.7815  -6.7795  -6.7795  -6.6931  -6.6931
    -6.6283  -6.6283  -6.4760  -6.4760  -6.4483  -6.4483  -6.4451  -6.4451
    -6.2759  -6.2759  -6.1637  -6.1637  -6.1457  -6.1457  -6.1449  -6.1449
    -6.1250  -6.1250  -5.9695  -5.9695  -5.9621  -5.9621  -4.2794  -4.2794
    -4.2758  -4.2758  -4.1631  -4.1631  -4.1569  -4.1569  -4.1528  -4.1528
    -4.1459  -4.1459  -3.9707  -3.9707  -3.9428  -3.9428  -3.8922  -3.8922
    -3.8529  -3.8529  -3.8227  -3.8227  -3.8106  -3.8106  -3.7280  -3.7280
    -3.7221  -3.7221  -3.6865  -3.6865  -3.6411  -3.6411  -3.6193  -3.6193
    -3.5884  -3.5884  -3.4319  -3.4319  -3.4253  -3.4253  -3.3603  -3.3603
    -3.3520  -3.3520  -3.2732  -3.2732  -3.2663  -3.2663  -3.2605  -3.2605
    -3.2582  -3.2582  -3.1329  -3.1329  -3.0227  -3.0227  -3.0087  -3.0087
    -2.9959  -2.9959  -2.6847  -2.6847  -2.6385  -2.6385  -2.6333  -2.6333
    -2.6243  -2.6243  -2.5776  -2.5776  -2.5656  -2.5656  -2.5455  -2.5455
    -2.5375  -2.5375  -2.5225  -2.5225  -2.5187  -2.5187  -2.5006  -2.5006
    -2.4787  -2.4787  -2.4765  -2.4765  -2.4128  -2.4128  -2.4098  -2.4098
    -2.3886  -2.3886  -2.3694  -2.3694  -2.3528  -2.3528  -2.3382  -2.3382
    -2.3105  -2.3105  -2.3028  -2.3028  -2.2759  -2.2759  -2.1407  -2.1407
    -2.1379  -2.1379  -1.6524  -1.6524  -1.6438  -1.6438  -0.7669  -0.7669
    -0.7452  -0.7452   0.0983   0.0983   0.1059   0.1059

          k =-0.5007-0.2892-0.1440 ( 44400 PWs)   bands (ev):

   -25.5001 -25.5001 -25.4941 -25.4940 -25.3191 -25.3191 -25.3144 -25.3144
   -25.0337 -25.0337 -25.0323 -25.0323 -24.7724 -24.7724 -24.7717 -24.7717
   -24.7473 -24.7473 -24.7155 -24.7155 -24.7032 -24.7032 -24.6509 -24.6509
   -24.6464 -24.6464 -24.6426 -24.6426 -24.6367 -24.6367 -23.7493 -23.7493
   -23.7077 -23.7077 -23.6803 -23.6803 -23.5623 -23.5623 -23.5560 -23.5560
   -23.4064 -23.4064 -23.4057 -23.4057 -23.2909 -23.2909 -23.2890 -23.2890
   -23.2579 -23.2579 -23.2556 -23.2556 -23.2305 -23.2305 -23.2217 -23.2217
   -23.2177 -23.2177 -23.2055 -23.2055 -13.1465 -13.1465 -13.1310 -13.1310
   -12.8830 -12.8830 -12.8702 -12.8702 -12.3635 -12.3635 -12.3582 -12.3582
   -11.5555 -11.5555 -11.5530 -11.5530 -10.4104 -10.4104 -10.3977 -10.3976
    -9.1589  -9.1589  -9.1412  -9.1412  -8.8450  -8.8450  -8.7506  -8.7506
    -8.7026  -8.7026  -7.9024  -7.9024  -7.8932  -7.8932  -7.8553  -7.8553
    -7.8261  -7.8261  -7.6897  -7.6897  -7.6470  -7.6470  -7.6178  -7.6178
    -7.6152  -7.6152  -7.4926  -7.4926  -7.3108  -7.3108  -7.2547  -7.2547
    -7.2037  -7.2037  -7.1849  -7.1849  -6.9644  -6.9644  -6.9568  -6.9568
    -6.7876  -6.7876  -6.7871  -6.7871  -6.6959  -6.6959  -6.6906  -6.6906
    -6.6181  -6.6181  -6.6141  -6.6140  -6.6004  -6.6004  -6.4529  -6.4529
    -6.3507  -6.3507  -6.3174  -6.3174  -6.1532  -6.1532  -6.1306  -6.1306
    -5.9695  -5.9695  -5.9622  -5.9622  -5.9225  -5.9225  -4.2823  -4.2823
    -4.2789  -4.2789  -4.1782  -4.1782  -4.1705  -4.1705  -4.0777  -4.0777
    -4.0735  -4.0735  -4.0550  -4.0550  -4.0451  -4.0451  -3.9344  -3.9344
    -3.8270  -3.8270  -3.8169  -3.8169  -3.7491  -3.7491  -3.7238  -3.7238
    -3.6932  -3.6932  -3.6226  -3.6226  -3.6070  -3.6070  -3.6043  -3.6043
    -3.5612  -3.5612  -3.5065  -3.5065  -3.4850  -3.4850  -3.4826  -3.4826
    -3.3569  -3.3569  -3.3494  -3.3494  -3.1738  -3.1738  -3.1711  -3.1711
    -3.1680  -3.1680  -3.1243  -3.1243  -3.1000  -3.1000  -3.0179  -3.0179
    -3.0095  -3.0095  -2.6767  -2.6767  -2.6464  -2.6464  -2.6255  -2.6255
    -2.6235  -2.6235  -2.5914  -2.5914  -2.5650  -2.5650  -2.5490  -2.5490
    -2.5385  -2.5385  -2.5173  -2.5173  -2.5078  -2.5078  -2.4946  -2.4946
    -2.4930  -2.4930  -2.4566  -2.4566  -2.4298  -2.4298  -2.4096  -2.4096
    -2.3807  -2.3807  -2.3694  -2.3694  -2.3592  -2.3592  -2.3444  -2.3444
    -2.3089  -2.3089  -2.2971  -2.2971  -2.2468  -2.2468  -2.2347  -2.2346
    -1.9547  -1.9547  -1.9498  -1.9498  -1.2391  -1.2390  -1.2298  -1.2297
    -0.2900  -0.2899  -0.2680  -0.2680   0.2554   0.2554

     highest occupied level (ev):     0.2556

!    total energy              =   -4114.90901754 Ry
     total all-electron energy =    -14272.595208 Ry
     estimated scf accuracy    <          8.6E-10 Ry

     The total energy is the sum of the following terms:
     one-electron contribution =   -2386.25870540 Ry
     hartree contribution      =    1458.13702611 Ry
     xc contribution           =    -710.57181267 Ry
     ewald contribution        =   -1620.07202180 Ry
     DFT-D3 Dispersion         =      -0.28157774 Ry
     one-center paw contrib.   =    -855.86192603 Ry

     convergence has been achieved in  14 iterations

     Forces acting on atoms (cartesian axes, Ry/au):

     atom    1 type  2   force =     0.00001450   -0.00000974    0.00001939
     atom    2 type  2   force =     0.00001450    0.00000974   -0.00001939
     atom    3 type  2   force =     0.00004317   -0.00003461   -0.00001570
     atom    4 type  2   force =     0.00001852   -0.00004729   -0.00004487
     atom    5 type  2   force =     0.00000051   -0.00009249   -0.00002178
     atom    6 type  2   force =    -0.00009089   -0.00002498   -0.00000682
     atom    7 type  2   force =    -0.00002557    0.00000212    0.00004969
     atom    8 type  2   force =    -0.00004605   -0.00002811    0.00002153
     atom    9 type  2   force =    -0.00003269    0.00007093   -0.00000285
     atom   10 type  2   force =     0.00001255    0.00003872   -0.00002116
     atom   11 type  2   force =     0.00000853    0.00000799    0.00003637
     atom   12 type  2   force =     0.00002524   -0.00003509   -0.00000874
     atom   13 type  2   force =     0.00002335    0.00003954    0.00002876
     atom   14 type  2   force =     0.00006193   -0.00000056   -0.00001326
     atom   15 type  2   force =     0.00002398    0.00001091   -0.00005605
     atom   16 type  2   force =    -0.00000832   -0.00001277   -0.00005262
     atom   17 type  2   force =    -0.00000832    0.00001277    0.00005262
     atom   18 type  2   force =     0.00002398   -0.00001091    0.00005605
     atom   19 type  2   force =     0.00006193    0.00000056    0.00001326
     atom   20 type  2   force =     0.00002335   -0.00003954   -0.00002876
     atom   21 type  2   force =     0.00002524    0.00003509    0.00000874
     atom   22 type  2   force =     0.00000853   -0.00000799   -0.00003637
     atom   23 type  2   force =     0.00001255   -0.00003872    0.00002116
     atom   24 type  2   force =    -0.00003269   -0.00007093    0.00000285
     atom   25 type  2   force =    -0.00004605    0.00002811   -0.00002153
     atom   26 type  2   force =    -0.00002557   -0.00000212   -0.00004969
     atom   27 type  2   force =    -0.00009089    0.00002498    0.00000682
     atom   28 type  2   force =     0.00000051    0.00009249    0.00002178
     atom   29 type  2   force =     0.00001852    0.00004729    0.00004487
     atom   30 type  2   force =     0.00004317    0.00003461    0.00001570
     atom   31 type  2   force =     0.00001326   -0.00001089    0.00001951
     atom   32 type  2   force =     0.00001326    0.00001089   -0.00001951
     atom   33 type  2   force =     0.00004466   -0.00003365   -0.00001558
     atom   34 type  2   force =     0.00001955   -0.00004873   -0.00004500
     atom   35 type  2   force =    -0.00000112   -0.00009309   -0.00002164
     atom   36 type  2   force =    -0.00009162   -0.00002328   -0.00000697
     atom   37 type  2   force =    -0.00002376    0.00000234    0.00004983
     atom   38 type  2   force =    -0.00004577   -0.00002973    0.00002140
     atom   39 type  2   force =    -0.00003463    0.00007109   -0.00000270
     atom   40 type  2   force =     0.00001266    0.00004050   -0.00002126
     atom   41 type  2   force =     0.00001015    0.00000751    0.00003649
     atom   42 type  2   force =     0.00002485   -0.00003675   -0.00000884
     atom   43 type  2   force =     0.00002180    0.00004032    0.00002886
     atom   44 type  2   force =     0.00006269    0.00000108   -0.00001339
     atom   45 type  2   force =     0.00002533    0.00000981   -0.00005592
     atom   46 type  2   force =    -0.00000939   -0.00001421   -0.00005276
     atom   47 type  2   force =    -0.00000939    0.00001421    0.00005276
     atom   48 type  2   force =     0.00002533   -0.00000981    0.00005592
     atom   49 type  2   force =     0.00006269   -0.00000108    0.00001339
     atom   50 type  2   force =     0.00002180   -0.00004032   -0.00002886
     atom   51 type  2   force =     0.00002485    0.00003675    0.00000884
     atom   52 type  2   force =     0.00001015   -0.00000751   -0.00003649
     atom   53 type  2   force =     0.00001266   -0.00004050    0.00002126
     atom   54 type  2   force =    -0.00003463   -0.00007109    0.00000270
     atom   55 type  2   force =    -0.00004577    0.00002973   -0.00002140
     atom   56 type  2   force =    -0.00002376   -0.00000234   -0.00004983
     atom   57 type  2   force =    -0.00009162    0.00002328    0.00000697
     atom   58 type  2   force =    -0.00000112    0.00009309    0.00002164
     atom   59 type  2   force =     0.00001955    0.00004873    0.00004500
     atom   60 type  2   force =     0.00004466    0.00003365    0.00001558
     atom   61 type  1   force =     0.00004298    0.00000000    0.00000000
     atom   62 type  1   force =     0.00000668   -0.00002800   -0.00001667
     atom   63 type  1   force =    -0.00000759   -0.00002961   -0.00000274
     atom   64 type  1   force =    -0.00004668    0.00001325    0.00000455
     atom   65 type  1   force =    -0.00001141    0.00001403   -0.00000412
     atom   66 type  1   force =    -0.00000862    0.00001037    0.00000350
     atom   67 type  1   force =     0.00002976   -0.00000916   -0.00000175
     atom   68 type  1   force =    -0.00001242    0.00001249   -0.00001715
     atom   69 type  1   force =    -0.00001242   -0.00001249    0.00001715
     atom   70 type  1   force =     0.00002976    0.00000916    0.00000175
     atom   71 type  1   force =    -0.00000862   -0.00001037   -0.00000350
     atom   72 type  1   force =    -0.00001141   -0.00001403    0.00000412
     atom   73 type  1   force =    -0.00004668   -0.00001325   -0.00000455
     atom   74 type  1   force =    -0.00000759    0.00002961    0.00000274
     atom   75 type  1   force =     0.00000668    0.00002800    0.00001667
     atom   76 type  1   force =     0.00004735    0.00000000    0.00000000
     atom   77 type  1   force =     0.00000234   -0.00002715   -0.00001666
     atom   78 type  1   force =    -0.00000347   -0.00003149   -0.00000277
     atom   79 type  1   force =    -0.00005029    0.00001583    0.00000460
     atom   80 type  1   force =    -0.00000829    0.00001059   -0.00000419
     atom   81 type  1   force =    -0.00001086    0.00001424    0.00000349
     atom   82 type  1   force =     0.00003117   -0.00001345   -0.00000169
     atom   83 type  1   force =    -0.00001291    0.00001704   -0.00001722
     atom   84 type  1   force =    -0.00001291   -0.00001704    0.00001722
     atom   85 type  1   force =     0.00003117    0.00001345    0.00000169
     atom   86 type  1   force =    -0.00001086   -0.00001424   -0.00000349
     atom   87 type  1   force =    -0.00000829   -0.00001059    0.00000419
     atom   88 type  1   force =    -0.00005029   -0.00001583   -0.00000460
     atom   89 type  1   force =    -0.00000347    0.00003149    0.00000277
     atom   90 type  1   force =     0.00000234    0.00002715    0.00001666

     Total force =     0.000517     Total SCF correction =     0.000129
     SCF correction compared to forces is large: reduce conv_thr to get better values


     Computing stress (Cartesian axis) and pressure

          total   stress  (Ry/bohr**3)                   (kbar)     P=       -0.23
  -0.00000098   0.00000000   0.00000000           -0.14        0.00        0.00
   0.00000000  -0.00000071   0.00000008            0.00       -0.10        0.01
   0.00000000   0.00000008  -0.00000293            0.00        0.01       -0.43


     Writing all to output data dir ./PTFE/PTFE_IV_rect_P1_twochains-vcrelax.save/ :
     XML data file, charge density, pseudopotentials, collected wavefunctions

     init_run     :    393.92s CPU    396.53s WALL (       2 calls)
     electrons    : 171195.49s CPU 172089.74s WALL (      43 calls)
     update_pot   :     23.95s CPU     24.49s WALL (      41 calls)
     forces       :   5798.30s CPU   5821.87s WALL (      43 calls)
     force_dftd3  :    138.77s CPU    141.41s WALL (      43 calls)
     stress       :  18222.11s CPU  18258.99s WALL (      43 calls)
     stres_dftd3  :    138.63s CPU    141.37s WALL (      43 calls)

     Called by init_run:
     wfcinit      :    389.16s CPU    391.49s WALL (       2 calls)
     potinit      :      1.07s CPU      1.12s WALL (       2 calls)
     hinit0       :      0.16s CPU      0.18s WALL (       2 calls)

     Called by electrons:
     c_bands      : 160468.70s CPU 161248.07s WALL (     273 calls)
     sum_band     :  10123.49s CPU  10203.62s WALL (     273 calls)
     v_of_rho     :     43.63s CPU     46.24s WALL (     283 calls)
     newd         :    426.00s CPU    462.44s WALL (     283 calls)
     PAW_pot      :    113.08s CPU    113.20s WALL (     324 calls)
     mix_rho      :      8.34s CPU      8.95s WALL (     273 calls)
     energy_dftd3 :    105.17s CPU    105.22s WALL (      43 calls)

     Called by c_bands:
     init_us_2    :    431.04s CPU    432.95s WALL (    5400 calls)
     cegterg      : 160124.66s CPU 160889.27s WALL (    2184 calls)

     Called by *egterg:
     cdiaghg      :   1455.15s CPU   1493.05s WALL (    7665 calls)
     h_psi        :  56394.43s CPU  56774.08s WALL (    8273 calls)
     s_psi        :  26655.77s CPU  26668.06s WALL (    8273 calls)
     g_psi        :     36.54s CPU     36.71s WALL (    6073 calls)

     Called by h_psi:
     h_psi:calbec :  24222.52s CPU  24246.10s WALL (    8273 calls)
     vloc_psi     :   5411.57s CPU   5700.75s WALL (    8273 calls)
     add_vuspsi   :  26684.94s CPU  26695.05s WALL (    8273 calls)

     General routines
     calbec       :  56636.65s CPU  56676.18s WALL (   16633 calls)
     fft          :     37.91s CPU     42.81s WALL (    4742 calls)
     ffts         :      1.24s CPU      1.41s WALL (     556 calls)
     fftw         :   4386.33s CPU   4599.10s WALL ( 3963406 calls)
     interpolate  :      3.72s CPU      4.20s WALL (     283 calls)

     Parallel routines

     PWSCF        :   2d 6h43m CPU   2d 6h59m WALL


   This run was terminated on:  23:53:35   7Sep2025            

=------------------------------------------------------------------------------=
   JOB DONE.
=------------------------------------------------------------------------------=
