
     Program PWSCF v.7.4.1 starts on 10Sep2025 at 15:24:42 

     This program is part of the open-source Quantum ESPRESSO suite
     for quantum simulation of materials; please cite
         "P. Giannozzi et al., J. Phys.:Condens. Matter 21 395502 (2009);
         "P. Giannozzi et al., J. Phys.:Condens. Matter 29 465901 (2017);
         "P. Giannozzi et al., J. Chem. Phys. 152 154105 (2020);
          URL http://www.quantum-espresso.org", 
     in publications or presentations arising from this work. More details at
     http://www.quantum-espresso.org/quote

     Parallel version (MPI), running on     8 processors

     MPI processes distributed on     1 nodes
     48461 MiB available memory on the printing compute node when the environment starts

     Reading input from PTFE_II_rect_P1_twochains-vcrelax_2.in

     Current dimensions of program PWSCF are:
     Max number of different atomic species (ntypx) = 10
     Max number of k-points (npk) =  40000
     Max angular momentum in pseudopotentials (lmaxx) =  4
     file C.pbe-n-kjpaw_psl.1.0.0.UPF: wavefunction(s)  2S 2P renormalized
     file F.pbe-n-kjpaw_psl.1.0.0.UPF: wavefunction(s)  2S 2P renormalized
     Found identity + ( -0.5000 -0.5000  0.0000) symmetry
     This is a supercell, fractional translations are disabled
     Message from routine setup:
     using ibrav=0 with symmetry is DISCOURAGED, use correct ibrav instead

     R & G space division:  proc/nbgrp/npool/nimage =       8
     Subspace diagonalization in iterative solution of the eigenvalue problem:
     one sub-group per band group will be used
     custom distributed-memory algorithm (size of sub-group:  2*  2 procs)


     Parallelization info
     --------------------
     sticks:   dense  smooth     PW     G-vecs:    dense   smooth      PW
     Min         598     397    109                69503    37821    5465
     Max         599     399    110                69508    37824    5470
     Sum        4785    3179    875               556051   302581   43745

     Using Slab Decomposition



     bravais-lattice index     =            0
     lattice parameter (alat)  =      10.7431  a.u.
     unit-cell volume          =    6335.0672 (a.u.)^3
     number of atoms/cell      =           78
     number of atomic types    =            2
     number of electrons       =       468.00
     number of Kohn-Sham states=          234
     kinetic-energy cutoff     =      50.0000  Ry
     charge density cutoff     =     300.0000  Ry
     scf convergence threshold =      1.0E-06
     mixing beta               =       0.5000
     number of iterations used =            8  plain     mixing
     energy convergence thresh.=      1.0E-04
     force convergence thresh. =      1.0E-04
     press convergence thresh. =      1.0E-01
     Exchange-correlation= SLA  PW   PBX  PBC
                           (   1   4   3   4   0   0   0)
     nstep                     =           50


     celldm(1)=  10.743093  celldm(2)=   0.000000  celldm(3)=   0.000000
     celldm(4)=   0.000000  celldm(5)=   0.000000  celldm(6)=   0.000000

     crystal axes: (cart. coord. in units of alat)
               a(1) = (   1.000000   0.000000   0.000000 )  
               a(2) = (   0.000000   1.732051   0.000000 )  
               a(3) = (   0.000000   0.000000   2.949868 )  

     reciprocal axes: (cart. coord. in units 2 pi/alat)
               b(1) = (  1.000000  0.000000  0.000000 )  
               b(2) = (  0.000000  0.577350  0.000000 )  
               b(3) = (  0.000000  0.000000  0.338998 )  


     PseudoPot. # 1 for C  read from file:
     ./pseudo/C.pbe-n-kjpaw_psl.1.0.0.UPF
     MD5 check sum: 5d2aebdfa2cae82b50a7e79e9516da0f
     Pseudo is Projector augmented-wave + core cor, Zval =  4.0
     Generated using "atomic" code by A. Dal Corso  v.5.1
     Shape of augmentation charge: PSQ
     Using radial grid of 1073 points,  4 beta functions with: 
                l(1) =   0
                l(2) =   0
                l(3) =   1
                l(4) =   1
     Q(r) pseudized with 0 coefficients 


     PseudoPot. # 2 for F  read from file:
     ./pseudo/F.pbe-n-kjpaw_psl.1.0.0.UPF
     MD5 check sum: 66d718ea72839a4268ab2a9540e8cdd4
     Pseudo is Projector augmented-wave + core cor, Zval =  7.0
     Generated using &quot;atomic&quot; code by A. Dal Corso  v.6.3
     Shape of augmentation charge: PSQ
     Using radial grid of 1105 points,  4 beta functions with: 
                l(1) =   0
                l(2) =   0
                l(3) =   1
                l(4) =   1
     Q(r) pseudized with 0 coefficients 


     atomic species   valence    mass     pseudopotential
     C                 4.00    12.01070     C ( 1.00)
     F                 7.00    18.99840     F ( 1.00)

      2 Sym. Ops. (no inversion) found



   Cartesian axes

     site n.     atom                  positions (alat units)
         1        F      tau(   1) = (   0.2690430   0.1357876   2.9391955  )
         2        F      tau(   2) = (   0.2690430   1.5962632   0.0106726  )
         3        F      tau(   3) = (   0.7062790   1.6645961   0.2162401  )
         4        F      tau(   4) = (   0.7712710   0.1962275   0.2375853  )
         5        F      tau(   5) = (   0.3013290   1.7272530   0.4431528  )
         6        F      tau(   6) = (   0.1751220   1.4867872   0.4644980  )
         7        F      tau(   7) = (   0.7085750   0.0767714   0.6700655  )
         8        F      tau(   8) = (   0.8886620   0.2800466   0.6914107  )
         9        F      tau(   9) = (   0.2645840   1.5877692   0.8969782  )
        10        F      tau(  10) = (   0.0410840   1.4334972   0.9183234  )
        11        F      tau(  11) = (   0.7776330   0.2034086   1.1238938  )
        12        F      tau(  12) = (   0.0315590   0.2997106   1.1452361  )
        13        F      tau(  13) = (   0.1672260   1.4813365   1.3508065  )
        14        F      tau(  14) = (   0.8976330   1.4486024   1.3721488  )
        15        F      tau(  15) = (   0.8976330   0.2834484   1.5777192  )
        16        F      tau(  16) = (   0.1672260   0.2507144   1.5990615  )
        17        F      tau(  17) = (   0.0315590   1.4323402   1.8046319  )
        18        F      tau(  18) = (   0.7776330   1.5286422   1.8259742  )
        19        F      tau(  19) = (   0.0410840   0.2985536   2.0315446  )
        20        F      tau(  20) = (   0.2645840   0.1442816   2.0528899  )
        21        F      tau(  21) = (   0.8886620   1.4520042   2.2584573  )
        22        F      tau(  22) = (   0.7085750   1.6552794   2.2798026  )
        23        F      tau(  23) = (   0.1751220   0.2452636   2.4853700  )
        24        F      tau(  24) = (   0.3013290   0.0047978   2.5067153  )
        25        F      tau(  25) = (   0.7712710   1.5358233   2.7122827  )
        26        F      tau(  26) = (   0.7062790   0.0674547   2.7336280  )
        27        F      tau(  27) = (   0.7690430   1.0018130   2.9391955  )
        28        F      tau(  28) = (   0.7690430   0.7302378   0.0106726  )
        29        F      tau(  29) = (   0.2062790   0.7985707   0.2162401  )
        30        F      tau(  30) = (   0.2712710   1.0622529   0.2375853  )
        31        F      tau(  31) = (   0.8013290   0.8612276   0.4431528  )
        32        F      tau(  32) = (   0.6751220   0.6207618   0.4644980  )
        33        F      tau(  33) = (   0.2085750   0.9427968   0.6700655  )
        34        F      tau(  34) = (   0.3886620   1.1460720   0.6914107  )
        35        F      tau(  35) = (   0.7645840   0.7217438   0.8969782  )
        36        F      tau(  36) = (   0.5410840   0.5674718   0.9183234  )
        37        F      tau(  37) = (   0.2776330   1.0694340   1.1238938  )
        38        F      tau(  38) = (   0.5315590   1.1657360   1.1452361  )
        39        F      tau(  39) = (   0.6672260   0.6153110   1.3508065  )
        40        F      tau(  40) = (   0.3976330   0.5825770   1.3721488  )
        41        F      tau(  41) = (   0.3976330   1.1494738   1.5777192  )
        42        F      tau(  42) = (   0.6672260   1.1167398   1.5990615  )
        43        F      tau(  43) = (   0.5315590   0.5663148   1.8046319  )
        44        F      tau(  44) = (   0.2776330   0.6626168   1.8259742  )
        45        F      tau(  45) = (   0.5410840   1.1645790   2.0315446  )
        46        F      tau(  46) = (   0.7645840   1.0103070   2.0528899  )
        47        F      tau(  47) = (   0.3886620   0.5859788   2.2584573  )
        48        F      tau(  48) = (   0.2085750   0.7892540   2.2798026  )
        49        F      tau(  49) = (   0.6751220   1.1112890   2.4853700  )
        50        F      tau(  50) = (   0.8013290   0.8708232   2.5067153  )
        51        F      tau(  51) = (   0.2712710   0.6697979   2.7122827  )
        52        F      tau(  52) = (   0.2062790   0.9334801   2.7336280  )
        53        C      tau(  53) = (   0.0745210   0.0000000   0.0000000  )
        54        C      tau(  54) = (   0.9276440   0.0178349   0.2269127  )
        55        C      tau(  55) = (   0.0659850   1.6974185   0.4538254  )
        56        C      tau(  56) = (   0.9442200   0.0494171   0.6807381  )
        57        C      tau(  57) = (   0.0423330   1.6707206   0.9076508  )
        58        C      tau(  58) = (   0.9735740   0.0696787   1.1345635  )
        59        C      tau(  59) = (   0.0089830   1.6580732   1.3614762  )
        60        C      tau(  60) = (   0.0089830   0.0739776   1.5883919  )
        61        C      tau(  61) = (   0.9735740   1.6623721   1.8153046  )
        62        C      tau(  62) = (   0.0423330   0.0613302   2.0422173  )
        63        C      tau(  63) = (   0.9442200   1.6826337   2.2691300  )
        64        C      tau(  64) = (   0.0659850   0.0346324   2.4960427  )
        65        C      tau(  65) = (   0.9276440   1.7142159   2.7229554  )
        66        C      tau(  66) = (   0.5745210   0.8660254   0.0000000  )
        67        C      tau(  67) = (   0.4276440   0.8838603   0.2269127  )
        68        C      tau(  68) = (   0.5659850   0.8313930   0.4538254  )
        69        C      tau(  69) = (   0.4442200   0.9154425   0.6807381  )
        70        C      tau(  70) = (   0.5423330   0.8046952   0.9076508  )
        71        C      tau(  71) = (   0.4735740   0.9357041   1.1345635  )
        72        C      tau(  72) = (   0.5089830   0.7920478   1.3614762  )
        73        C      tau(  73) = (   0.5089830   0.9400030   1.5883919  )
        74        C      tau(  74) = (   0.4735740   0.7963467   1.8153046  )
        75        C      tau(  75) = (   0.5423330   0.9273556   2.0422173  )
        76        C      tau(  76) = (   0.4442200   0.8166083   2.2691300  )
        77        C      tau(  77) = (   0.5659850   0.9006578   2.4960427  )
        78        C      tau(  78) = (   0.4276440   0.8481905   2.7229554  )

     --------------------------------------------
     DFT-D3 Dispersion Correction (3-body terms):
     --------------------------------------------
       Reference C6 values for interpolation: 

         atom   Coordination number   C6
         C          0.000            98.23
         C          0.987            86.49
         C          1.998            58.72
         C          2.999            51.56
         C          3.984            36.41
         F          0.000            19.38
         F          0.998            14.27

       Values used:

         atom   Coordination number  R0_AB[au]  C6      C8
         F          1.899            2.173     14.27    244.15
         F          1.899            2.173     14.27    244.15
         F          1.902            2.173     14.27    244.15
         F          1.899            2.173     14.27    244.15
         F          1.902            2.173     14.27    244.15
         F          1.902            2.173     14.27    244.15
         F          1.900            2.173     14.27    244.15
         F          1.902            2.173     14.27    244.15
         F          1.899            2.173     14.27    244.15
         F          1.900            2.173     14.27    244.15
         F          1.901            2.173     14.27    244.15
         F          1.898            2.173     14.27    244.15
         F          1.902            2.173     14.27    244.15
         F          1.901            2.173     14.27    244.15
         F          1.901            2.173     14.27    244.15
         F          1.902            2.173     14.27    244.15
         F          1.898            2.173     14.27    244.15
         F          1.901            2.173     14.27    244.15
         F          1.900            2.173     14.27    244.15
         F          1.899            2.173     14.27    244.15
         F          1.902            2.173     14.27    244.15
         F          1.900            2.173     14.27    244.15
         F          1.902            2.173     14.27    244.15
         F          1.902            2.173     14.27    244.15
         F          1.899            2.173     14.27    244.15
         F          1.902            2.173     14.27    244.15
         F          1.899            2.173     14.27    244.15
         F          1.899            2.173     14.27    244.15
         F          1.902            2.173     14.27    244.15
         F          1.899            2.173     14.27    244.15
         F          1.902            2.173     14.27    244.15
         F          1.902            2.173     14.27    244.15
         F          1.900            2.173     14.27    244.15
         F          1.902            2.173     14.27    244.15
         F          1.899            2.173     14.27    244.15
         F          1.900            2.173     14.27    244.15
         F          1.901            2.173     14.27    244.15
         F          1.898            2.173     14.27    244.15
         F          1.902            2.173     14.27    244.15
         F          1.901            2.173     14.27    244.15
         F          1.901            2.173     14.27    244.15
         F          1.902            2.173     14.27    244.15
         F          1.898            2.173     14.27    244.15
         F          1.901            2.173     14.27    244.15
         F          1.900            2.173     14.27    244.15
         F          1.899            2.173     14.27    244.15
         F          1.902            2.173     14.27    244.15
         F          1.900            2.173     14.27    244.15
         F          1.902            2.173     14.27    244.15
         F          1.902            2.173     14.27    244.15
         F          1.899            2.173     14.27    244.15
         F          1.902            2.173     14.27    244.15
         C          4.126            2.750     36.50   1055.71
         C          4.126            2.750     36.50   1055.71
         C          4.126            2.750     36.50   1055.71
         C          4.126            2.750     36.50   1055.71
         C          4.126            2.750     36.50   1055.71
         C          4.126            2.750     36.50   1055.71
         C          4.126            2.750     36.50   1055.71
         C          4.126            2.750     36.50   1055.71
         C          4.126            2.750     36.50   1055.71
         C          4.126            2.750     36.50   1055.71
         C          4.126            2.750     36.50   1055.71
         C          4.126            2.750     36.50   1055.71
         C          4.126            2.750     36.50   1055.71
         C          4.126            2.750     36.50   1055.71
         C          4.126            2.750     36.50   1055.71
         C          4.126            2.750     36.50   1055.71
         C          4.126            2.750     36.50   1055.71
         C          4.126            2.750     36.50   1055.71
         C          4.126            2.750     36.50   1055.71
         C          4.126            2.750     36.50   1055.71
         C          4.126            2.750     36.50   1055.71
         C          4.126            2.750     36.50   1055.71
         C          4.126            2.750     36.50   1055.71
         C          4.126            2.750     36.50   1055.71
         C          4.126            2.750     36.50   1055.71
         C          4.126            2.750     36.50   1055.71

         Molecular C6 ( Ry / a.u.^6 ) =    122475.64


     number of k points=     8
                       cart. coord. in units 2pi/alat
        k(    1) = (   0.0000000   0.0000000   0.0000000), wk =   0.2500000
        k(    2) = (   0.0000000   0.0000000  -0.1694991), wk =   0.2500000
        k(    3) = (   0.0000000  -0.2886751   0.0000000), wk =   0.2500000
        k(    4) = (   0.0000000  -0.2886751  -0.1694991), wk =   0.2500000
        k(    5) = (  -0.5000000   0.0000000   0.0000000), wk =   0.2500000
        k(    6) = (  -0.5000000   0.0000000  -0.1694991), wk =   0.2500000
        k(    7) = (  -0.5000000  -0.2886751   0.0000000), wk =   0.2500000
        k(    8) = (  -0.5000000  -0.2886751  -0.1694991), wk =   0.2500000

     Dense  grid:   556051 G-vectors     FFT dimensions: (  60, 108, 180)

     Smooth grid:   302581 G-vectors     FFT dimensions: (  50,  90, 144)

     Estimated max dynamical RAM per process >     449.01 MB

     Estimated total dynamical RAM >       3.51 GB

     Atomic positions and unit cell read from directory:
     ./PTFE/PTFE_II_rect_P1_twochains-vcrelax.save/
     Atomic positions from file used, from input discarded

     New effective cutoffs (rho, wfc):  301.42   50.24

     Check: negative core charge=   -0.000004

     The initial density is read from file :
     ./PTFE/PTFE_II_rect_P1_twochains-vcrelax.save/charge-density

     Starting wfcs from file
     Checking if some PAW data can be deallocated... 

     total cpu time spent up to now is        2.8 secs

     Self-consistent Calculation

     iteration #  1     ecut=    50.00 Ry     beta= 0.50
     Davidson diagonalization with overlap
     ethr =  1.00E-05,  avg # of iterations =  2.0

     Threshold (ethr) on eigenvalues was too large:
     Diagonalizing with lowered threshold

     Davidson diagonalization with overlap
     ethr =  9.30E-09,  avg # of iterations =  4.0

     total cpu time spent up to now is      929.5 secs

     total energy              =   -3566.25800110 Ry
     estimated scf accuracy    <       0.00003796 Ry

     iteration #  2     ecut=    50.00 Ry     beta= 0.50
     Davidson diagonalization with overlap
     ethr =  8.11E-09,  avg # of iterations =  2.0

     total cpu time spent up to now is     1269.5 secs

     total energy              =   -3566.25800433 Ry
     estimated scf accuracy    <       0.00000854 Ry

     iteration #  3     ecut=    50.00 Ry     beta= 0.50
     Davidson diagonalization with overlap
     ethr =  1.82E-09,  avg # of iterations =  2.0

     total cpu time spent up to now is     1581.9 secs

     total energy              =   -3566.25800500 Ry
     estimated scf accuracy    <       0.00000126 Ry

     iteration #  4     ecut=    50.00 Ry     beta= 0.50
     Davidson diagonalization with overlap
     ethr =  2.68E-10,  avg # of iterations =  1.4

     total cpu time spent up to now is     1838.8 secs

     End of self-consistent calculation

          k = 0.0000 0.0000 0.0000 ( 37727 PWs)   bands (ev):

   -25.5619 -25.5255 -25.4338 -25.4335 -25.4065 -25.3933 -25.1168 -25.1160
   -25.0937 -25.0910 -24.7893 -24.7879 -24.7836 -24.7794 -24.7408 -24.7227
   -24.6904 -24.6899 -24.6650 -24.6643 -24.6388 -24.6381 -24.6360 -24.6317
   -24.6249 -24.6245 -23.7250 -23.7195 -23.6829 -23.6823 -23.5992 -23.5963
   -23.5800 -23.5583 -23.4338 -23.4311 -23.4175 -23.4171 -23.3031 -23.3024
   -23.3016 -23.2991 -23.2627 -23.2549 -23.2549 -23.2545 -23.2534 -23.2521
   -23.2433 -23.2292 -23.2131 -23.2029 -13.2808 -13.1809 -13.0911 -13.0883
   -13.0257 -12.9868 -12.5257 -12.5242 -12.4951 -12.4840 -11.5978 -11.5929
   -11.5727 -11.5708 -10.2538 -10.2488 -10.1731 -10.1720  -8.9601  -8.9520
    -8.7697  -8.7630  -8.7425  -8.7246  -8.5485  -8.5482  -7.9872  -7.9864
    -7.9347  -7.9288  -7.7622  -7.7491  -7.7116  -7.7043  -7.6802  -7.6723
    -7.6408  -7.6329  -7.6160  -7.6107  -7.4794  -7.4784  -7.3350  -7.3165
    -7.2976  -7.2874  -7.2649  -7.1505  -7.1403  -7.1164  -7.0064  -6.9997
    -6.9641  -6.9638  -6.7955  -6.7955  -6.7254  -6.6766  -6.6669  -6.6459
    -6.6058  -6.6018  -6.5933  -6.4560  -6.3727  -6.3621  -6.3185  -6.2542
    -6.2534  -6.2449  -6.2340  -6.2135  -6.2098  -6.1966  -6.1949  -6.1495
    -5.9928  -5.9717  -4.3501  -4.3476  -4.2813  -4.2753  -4.2752  -4.2669
    -4.1815  -4.1702  -4.0833  -4.0829  -4.0788  -4.0681  -4.0342  -4.0340
    -3.9531  -3.9126  -3.8827  -3.8282  -3.7606  -3.6859  -3.6769  -3.6649
    -3.6553  -3.6359  -3.6328  -3.6063  -3.5823  -3.5720  -3.5275  -3.5046
    -3.5036  -3.4218  -3.4174  -3.4110  -3.4083  -3.3922  -3.3919  -3.3466
    -3.3078  -3.3008  -3.2779  -3.2277  -3.2190  -3.1943  -3.1234  -3.0787
    -3.0486  -3.0262  -3.0240  -3.0087  -2.9571  -2.9564  -2.6779  -2.6739
    -2.6675  -2.6624  -2.6322  -2.6259  -2.6227  -2.6226  -2.5890  -2.5885
    -2.5882  -2.5597  -2.5573  -2.5567  -2.5560  -2.5494  -2.5376  -2.5362
    -2.5147  -2.5027  -2.5016  -2.4847  -2.4197  -2.4159  -2.4094  -2.4045
    -2.3885  -2.3788  -2.3551  -2.3531  -2.3395  -2.3395  -2.2907  -2.2804
    -2.2803  -2.2798  -2.2548  -2.2389  -2.1254  -2.1101  -1.8991  -1.8881
    -1.7509  -1.7503  -1.0023  -0.9803  -0.9606  -0.9208  -0.0012  -0.0007
     0.0230   0.0324

          k = 0.0000 0.0011-0.1663 ( 37856 PWs)   bands (ev):

   -25.5289 -25.5286 -25.4964 -25.4897 -25.2944 -25.2844 -25.2612 -25.2577
   -24.9409 -24.9405 -24.9246 -24.9238 -24.7451 -24.7073 -24.6996 -24.6970
   -24.6829 -24.6823 -24.6813 -24.6783 -24.6654 -24.6653 -24.6393 -24.6349
   -24.6156 -24.6142 -23.7395 -23.6990 -23.6846 -23.6581 -23.6373 -23.6367
   -23.5177 -23.5126 -23.4928 -23.4910 -23.3592 -23.3589 -23.3539 -23.3506
   -23.2694 -23.2689 -23.2661 -23.2632 -23.2606 -23.2599 -23.2503 -23.2498
   -23.2433 -23.2326 -23.2121 -23.2028 -13.2329 -13.2328 -13.1458 -13.1289
   -12.8570 -12.8499 -12.7969 -12.7841 -12.1008 -12.1007 -12.0973 -12.0931
   -10.9812 -10.9754 -10.9311 -10.9241  -9.4974  -9.4801  -9.3708  -9.3666
    -8.8445  -8.7432  -8.7064  -8.5787  -8.5779  -8.5459  -7.9717  -7.9709
    -7.9580  -7.9245  -7.9077  -7.9014  -7.8142  -7.8088  -7.6770  -7.6290
    -7.5444  -7.5442  -7.4962  -7.4760  -7.4459  -7.4454  -7.4043  -7.3833
    -7.2155  -7.1757  -7.1131  -7.1042  -7.0857  -6.9391  -6.9001  -6.8926
    -6.8778  -6.8751  -6.8548  -6.8528  -6.8124  -6.8011  -6.7957  -6.7836
    -6.6800  -6.6797  -6.6239  -6.4867  -6.4865  -6.4567  -6.4383  -6.4096
    -6.2925  -6.2854  -6.2456  -6.2453  -6.1913  -6.1653  -5.9929  -5.9718
    -5.9247  -5.9129  -4.3317  -4.3309  -4.2874  -4.2698  -4.2695  -4.2623
    -4.1927  -4.1815  -4.1646  -4.1519  -4.1307  -4.1152  -3.9638  -3.8964
    -3.8913  -3.8596  -3.8596  -3.7655  -3.7652  -3.7532  -3.6762  -3.6746
    -3.6632  -3.6445  -3.6064  -3.5963  -3.5958  -3.5792  -3.5563  -3.5494
    -3.5493  -3.5481  -3.5051  -3.4933  -3.3718  -3.3714  -3.3026  -3.3001
    -3.2683  -3.2262  -3.2222  -3.1939  -3.1855  -3.1645  -3.1194  -3.0801
    -3.0793  -3.0724  -3.0707  -3.0513  -3.0026  -2.9137  -2.6807  -2.6795
    -2.6621  -2.6585  -2.6503  -2.6231  -2.6196  -2.6059  -2.6050  -2.5723
    -2.5703  -2.5669  -2.5637  -2.5601  -2.5581  -2.5557  -2.5338  -2.5270
    -2.5119  -2.5054  -2.4731  -2.4726  -2.4555  -2.4301  -2.4024  -2.3978
    -2.3807  -2.3785  -2.3510  -2.3509  -2.3434  -2.3430  -2.3083  -2.3073
    -2.2880  -2.2775  -2.2085  -2.2078  -2.1304  -2.1266  -1.9829  -1.9740
    -1.5094  -1.4978  -1.4009  -1.4009  -0.4513  -0.4362  -0.4353  -0.4285
     0.1841   0.2248

          k = 0.0000-0.2889 0.0018 ( 37854 PWs)   bands (ev):

   -25.5441 -25.5441 -25.4205 -25.4205 -25.4140 -25.4140 -25.1060 -25.1060
   -25.1035 -25.1035 -24.7869 -24.7869 -24.7835 -24.7835 -24.7137 -24.7137
   -24.7062 -24.7062 -24.6515 -24.6514 -24.6480 -24.6480 -24.6324 -24.6324
   -24.6297 -24.6297 -23.7041 -23.7041 -23.7013 -23.7013 -23.5903 -23.5903
   -23.5785 -23.5785 -23.4273 -23.4273 -23.4237 -23.4237 -23.3030 -23.3030
   -23.2997 -23.2997 -23.2563 -23.2563 -23.2486 -23.2486 -23.2408 -23.2408
   -23.2344 -23.2344 -23.2273 -23.2273 -13.2314 -13.2314 -13.0588 -13.0588
   -13.0385 -13.0385 -12.5111 -12.5111 -12.5041 -12.5041 -11.5858 -11.5858
   -11.5815 -11.5815 -10.2139 -10.2139 -10.2100 -10.2100  -8.8586  -8.8586
    -8.8557  -8.8557  -8.6538  -8.6538  -8.6388  -8.6388  -7.9614  -7.9614
    -7.9570  -7.9570  -7.7180  -7.7180  -7.6934  -7.6934  -7.6848  -7.6848
    -7.6726  -7.6726  -7.5893  -7.5893  -7.5473  -7.5473  -7.3232  -7.3232
    -7.3022  -7.3022  -7.1859  -7.1859  -7.1371  -7.1371  -6.9999  -6.9999
    -6.9826  -6.9826  -6.7293  -6.7293  -6.7194  -6.7194  -6.6277  -6.6277
    -6.6184  -6.6184  -6.5517  -6.5517  -6.3399  -6.3399  -6.2998  -6.2998
    -6.2173  -6.2172  -6.2084  -6.2084  -6.1997  -6.1997  -6.1157  -6.1157
    -6.0940  -6.0940  -4.3124  -4.3124  -4.3023  -4.3023  -4.2475  -4.2475
    -4.2275  -4.2275  -4.0727  -4.0727  -4.0466  -4.0466  -4.0259  -4.0259
    -4.0096  -4.0096  -3.7826  -3.7826  -3.7202  -3.7202  -3.6933  -3.6933
    -3.6385  -3.6385  -3.6182  -3.6182  -3.6060  -3.6060  -3.4736  -3.4736
    -3.4607  -3.4607  -3.4360  -3.4360  -3.4021  -3.4021  -3.3575  -3.3575
    -3.2678  -3.2678  -3.2538  -3.2538  -3.2405  -3.2405  -3.0650  -3.0650
    -3.0394  -3.0394  -3.0324  -3.0324  -2.9814  -2.9814  -2.6743  -2.6743
    -2.6568  -2.6568  -2.6473  -2.6473  -2.6159  -2.6159  -2.5990  -2.5990
    -2.5779  -2.5779  -2.5511  -2.5511  -2.5478  -2.5478  -2.5224  -2.5224
    -2.4992  -2.4992  -2.4640  -2.4640  -2.4617  -2.4617  -2.4203  -2.4203
    -2.3681  -2.3681  -2.3488  -2.3488  -2.3331  -2.3331  -2.3163  -2.3163
    -2.2856  -2.2856  -2.1933  -2.1933  -2.1798  -2.1798  -1.8231  -1.8231
    -1.8100  -1.8100  -0.9804  -0.9804  -0.9463  -0.9463   0.0113   0.0113
     0.0165   0.0165

          k = 0.0000-0.2878-0.1645 ( 37844 PWs)   bands (ev):

   -25.5130 -25.5130 -25.5096 -25.5096 -25.2785 -25.2785 -25.2713 -25.2713
   -24.9337 -24.9337 -24.9318 -24.9318 -24.7205 -24.7204 -24.6888 -24.6888
   -24.6838 -24.6838 -24.6809 -24.6809 -24.6762 -24.6762 -24.6274 -24.6274
   -24.6246 -24.6246 -23.7196 -23.7196 -23.6616 -23.6616 -23.6477 -23.6477
   -23.5064 -23.5064 -23.5025 -23.5025 -23.3575 -23.3575 -23.3544 -23.3544
   -23.2674 -23.2674 -23.2645 -23.2645 -23.2492 -23.2492 -23.2451 -23.2451
   -23.2328 -23.2328 -23.2265 -23.2265 -13.1898 -13.1898 -13.1813 -13.1813
   -12.8242 -12.8242 -12.8211 -12.8211 -12.0997 -12.0997 -12.0965 -12.0965
   -10.9564 -10.9564 -10.9497 -10.9497  -9.4342  -9.4342  -9.4225  -9.4224
    -8.7124  -8.7124  -8.6478  -8.6478  -8.6407  -8.6407  -7.9632  -7.9632
    -7.9485  -7.9485  -7.8626  -7.8626  -7.8561  -7.8561  -7.6220  -7.6220
    -7.5688  -7.5688  -7.4914  -7.4914  -7.4497  -7.4497  -7.4263  -7.4263
    -7.1827  -7.1827  -7.1472  -7.1472  -6.9624  -6.9624  -6.9151  -6.9151
    -6.8706  -6.8706  -6.8580  -6.8580  -6.8029  -6.8029  -6.7968  -6.7968
    -6.6346  -6.6346  -6.5611  -6.5611  -6.4632  -6.4632  -6.4464  -6.4464
    -6.2358  -6.2358  -6.2313  -6.2313  -6.1263  -6.1263  -6.0999  -6.0999
    -5.9149  -5.9149  -4.3040  -4.3040  -4.2919  -4.2919  -4.2245  -4.2245
    -4.2098  -4.2098  -4.1823  -4.1823  -4.1573  -4.1573  -3.8937  -3.8937
    -3.8708  -3.8708  -3.8445  -3.8445  -3.7695  -3.7695  -3.6307  -3.6307
    -3.6248  -3.6248  -3.6007  -3.6007  -3.5898  -3.5898  -3.5804  -3.5804
    -3.5304  -3.5304  -3.5138  -3.5138  -3.3494  -3.3494  -3.3337  -3.3337
    -3.2453  -3.2453  -3.1973  -3.1973  -3.1423  -3.1423  -3.1207  -3.1207
    -3.0892  -3.0892  -3.0589  -3.0589  -2.9673  -2.9673  -2.6761  -2.6761
    -2.6675  -2.6675  -2.6375  -2.6375  -2.6159  -2.6159  -2.5930  -2.5930
    -2.5741  -2.5741  -2.5681  -2.5681  -2.5390  -2.5390  -2.5033  -2.5033
    -2.4976  -2.4976  -2.4818  -2.4818  -2.4467  -2.4467  -2.4189  -2.4189
    -2.3868  -2.3868  -2.3629  -2.3629  -2.3166  -2.3166  -2.2999  -2.2999
    -2.2763  -2.2763  -2.2594  -2.2594  -2.0597  -2.0597  -2.0416  -2.0416
    -1.4544  -1.4544  -1.4411  -1.4411  -0.4430  -0.4430  -0.4300  -0.4300
     0.2047   0.2047

          k =-0.5004 0.0000 0.0000 ( 37832 PWs)   bands (ev):

   -25.5253 -25.5253 -25.4030 -25.4030 -25.3970 -25.3970 -25.0935 -25.0935
   -25.0915 -25.0915 -24.7830 -24.7830 -24.7802 -24.7802 -24.7340 -24.7340
   -24.7266 -24.7266 -24.6663 -24.6663 -24.6642 -24.6642 -24.6381 -24.6381
   -24.6379 -24.6379 -23.7225 -23.7225 -23.7216 -23.7216 -23.6016 -23.6016
   -23.5976 -23.5976 -23.4338 -23.4338 -23.4328 -23.4328 -23.3006 -23.3006
   -23.2996 -23.2996 -23.2431 -23.2431 -23.2365 -23.2365 -23.2300 -23.2300
   -23.2180 -23.2180 -23.2130 -23.2130 -13.1798 -13.1798 -13.0138 -13.0138
   -12.9991 -12.9991 -12.4938 -12.4938 -12.4861 -12.4861 -11.5973 -11.5973
   -11.5936 -11.5936 -10.2517 -10.2517 -10.2507 -10.2507  -8.9471  -8.9470
    -8.9379  -8.9379  -8.7646  -8.7646  -8.7329  -8.7329  -7.9331  -7.9331
    -7.9327  -7.9327  -7.7031  -7.7031  -7.6712  -7.6712  -7.6518  -7.6518
    -7.6333  -7.6333  -7.6227  -7.6227  -7.5983  -7.5983  -7.3617  -7.3617
    -7.3535  -7.3535  -7.1234  -7.1234  -7.0921  -7.0921  -7.0161  -7.0161
    -7.0125  -7.0125  -6.6467  -6.6467  -6.6466  -6.6466  -6.5959  -6.5958
    -6.5886  -6.5886  -6.4795  -6.4795  -6.2948  -6.2948  -6.2786  -6.2786
    -6.1917  -6.1917  -6.1884  -6.1884  -6.1317  -6.1317  -6.0320  -6.0320
    -6.0236  -6.0235  -4.2665  -4.2665  -4.2581  -4.2581  -4.1966  -4.1966
    -4.1903  -4.1903  -4.0883  -4.0883  -4.0760  -4.0760  -3.9756  -3.9756
    -3.9233  -3.9233  -3.8606  -3.8606  -3.7585  -3.7585  -3.7444  -3.7443
    -3.7174  -3.7174  -3.6397  -3.6397  -3.6363  -3.6363  -3.4964  -3.4964
    -3.4948  -3.4948  -3.4290  -3.4290  -3.4284  -3.4284  -3.3173  -3.3173
    -3.3008  -3.3008  -3.2976  -3.2976  -3.2768  -3.2768  -3.0961  -3.0961
    -3.0737  -3.0737  -3.0597  -3.0597  -3.0456  -3.0456  -2.6653  -2.6653
    -2.6336  -2.6336  -2.6326  -2.6326  -2.6197  -2.6197  -2.5999  -2.5999
    -2.5796  -2.5796  -2.5507  -2.5507  -2.5487  -2.5487  -2.4904  -2.4904
    -2.4848  -2.4848  -2.4501  -2.4501  -2.4480  -2.4480  -2.4114  -2.4114
    -2.3822  -2.3822  -2.3722  -2.3722  -2.3487  -2.3487  -2.3239  -2.3239
    -2.2791  -2.2791  -2.2584  -2.2584  -2.2507  -2.2507  -1.9027  -1.9027
    -1.8971  -1.8971  -1.0040  -1.0040  -0.9790  -0.9790   0.0259   0.0259
     0.0304   0.0304

          k =-0.5004 0.0011-0.1663 ( 37804 PWs)   bands (ev):

   -25.4943 -25.4943 -25.4914 -25.4914 -25.2616 -25.2616 -25.2578 -25.2578
   -24.9248 -24.9248 -24.9239 -24.9239 -24.7414 -24.7414 -24.7063 -24.7063
   -24.6971 -24.6971 -24.6849 -24.6849 -24.6817 -24.6817 -24.6382 -24.6381
   -24.6371 -24.6371 -23.7395 -23.7395 -23.6792 -23.6792 -23.6654 -23.6654
   -23.5169 -23.5169 -23.5158 -23.5158 -23.3602 -23.3602 -23.3584 -23.3584
   -23.2601 -23.2601 -23.2590 -23.2590 -23.2362 -23.2362 -23.2300 -23.2300
   -23.2178 -23.2178 -23.2122 -23.2122 -13.1411 -13.1411 -13.1315 -13.1315
   -12.7973 -12.7973 -12.7855 -12.7855 -12.0964 -12.0964 -12.0944 -12.0944
   -10.9818 -10.9818 -10.9749 -10.9749  -9.4933  -9.4933  -9.4814  -9.4814
    -8.8058  -8.8058  -8.7665  -8.7665  -8.7268  -8.7268  -7.9489  -7.9489
    -7.9374  -7.9374  -7.8169  -7.8169  -7.8048  -7.8048  -7.6787  -7.6787
    -7.6078  -7.6078  -7.5321  -7.5321  -7.3935  -7.3935  -7.3751  -7.3751
    -7.2152  -7.2152  -7.2063  -7.2063  -6.9036  -6.9036  -6.8985  -6.8985
    -6.8668  -6.8668  -6.8577  -6.8577  -6.7955  -6.7955  -6.7543  -6.7543
    -6.5579  -6.5579  -6.4966  -6.4966  -6.4032  -6.4032  -6.4031  -6.4031
    -6.1792  -6.1792  -6.1623  -6.1623  -6.0304  -6.0304  -6.0255  -6.0255
    -5.9187  -5.9187  -4.2562  -4.2562  -4.2481  -4.2481  -4.1983  -4.1983
    -4.1837  -4.1837  -4.1402  -4.1402  -4.1100  -4.1100  -3.9234  -3.9234
    -3.9189  -3.9189  -3.8625  -3.8625  -3.7764  -3.7764  -3.7238  -3.7238
    -3.6362  -3.6362  -3.6317  -3.6317  -3.5856  -3.5856  -3.5753  -3.5753
    -3.5482  -3.5482  -3.5405  -3.5405  -3.3776  -3.3776  -3.3717  -3.3717
    -3.2668  -3.2668  -3.2200  -3.2200  -3.1963  -3.1963  -3.1697  -3.1697
    -3.0968  -3.0968  -3.0684  -3.0684  -3.0292  -3.0292  -2.6632  -2.6632
    -2.6493  -2.6493  -2.6245  -2.6245  -2.6189  -2.6189  -2.5944  -2.5944
    -2.5764  -2.5764  -2.5690  -2.5690  -2.5182  -2.5182  -2.5063  -2.5063
    -2.4735  -2.4735  -2.4570  -2.4570  -2.4478  -2.4478  -2.4047  -2.4047
    -2.3840  -2.3840  -2.3760  -2.3760  -2.3438  -2.3438  -2.3369  -2.3369
    -2.2870  -2.2870  -2.2760  -2.2760  -2.1431  -2.1431  -2.1349  -2.1349
    -1.5076  -1.5076  -1.5041  -1.5041  -0.4446  -0.4446  -0.4343  -0.4342
     0.2252   0.2252

          k =-0.5004-0.2889 0.0018 ( 37776 PWs)   bands (ev):

   -25.5253 -25.5253 -25.4060 -25.4059 -25.3937 -25.3937 -25.0939 -25.0939
   -25.0907 -25.0907 -24.7829 -24.7829 -24.7801 -24.7801 -24.7414 -24.7414
   -24.7223 -24.7223 -24.6652 -24.6652 -24.6645 -24.6645 -24.6379 -24.6379
   -24.6368 -24.6368 -23.7246 -23.7246 -23.7202 -23.7202 -23.5993 -23.5993
   -23.5962 -23.5962 -23.4328 -23.4328 -23.4322 -23.4322 -23.3027 -23.3027
   -23.2997 -23.2997 -23.2550 -23.2550 -23.2427 -23.2427 -23.2282 -23.2282
   -23.2130 -23.2130 -23.2039 -23.2039 -13.1805 -13.1805 -13.0227 -13.0227
   -12.9893 -12.9892 -12.4961 -12.4961 -12.4831 -12.4831 -11.5974 -11.5974
   -11.5937 -11.5937 -10.2525 -10.2525 -10.2508 -10.2508  -8.9624  -8.9624
    -8.9509  -8.9509  -8.7450  -8.7450  -8.7252  -8.7252  -7.9329  -7.9329
    -7.9306  -7.9306  -7.7118  -7.7118  -7.6719  -7.6719  -7.6411  -7.6411
    -7.6320  -7.6320  -7.6158  -7.6158  -7.6103  -7.6103  -7.3349  -7.3349
    -7.3180  -7.3180  -7.1406  -7.1406  -7.1152  -7.1152  -7.0072  -7.0072
    -6.9989  -6.9989  -6.7254  -6.7254  -6.6656  -6.6656  -6.6045  -6.6045
    -6.5948  -6.5948  -6.4563  -6.4563  -6.3213  -6.3213  -6.2285  -6.2285
    -6.2128  -6.2128  -6.2105  -6.2105  -6.1457  -6.1456  -5.9931  -5.9931
    -5.9732  -5.9732  -4.2795  -4.2795  -4.2694  -4.2694  -4.1812  -4.1812
    -4.1717  -4.1717  -4.0788  -4.0788  -4.0682  -4.0682  -3.9531  -3.9531
    -3.9121  -3.9121  -3.8822  -3.8822  -3.8285  -3.8285  -3.7602  -3.7602
    -3.6771  -3.6770  -3.6543  -3.6543  -3.6066  -3.6066  -3.5071  -3.5071
    -3.5047  -3.5047  -3.4194  -3.4194  -3.4164  -3.4164  -3.3471  -3.3471
    -3.3094  -3.3094  -3.2974  -3.2974  -3.2786  -3.2786  -3.1214  -3.1214
    -3.0771  -3.0771  -3.0514  -3.0514  -3.0085  -3.0085  -2.6636  -2.6636
    -2.6329  -2.6329  -2.6248  -2.6248  -2.6182  -2.6182  -2.5878  -2.5878
    -2.5665  -2.5665  -2.5530  -2.5530  -2.5492  -2.5492  -2.5142  -2.5142
    -2.5015  -2.5015  -2.4831  -2.4831  -2.4121  -2.4121  -2.4037  -2.4037
    -2.3895  -2.3895  -2.3812  -2.3812  -2.3427  -2.3427  -2.3372  -2.3372
    -2.2808  -2.2808  -2.2561  -2.2561  -2.2393  -2.2393  -1.9012  -1.9012
    -1.8869  -1.8869  -1.0024  -1.0024  -0.9801  -0.9800   0.0236   0.0236
     0.0324   0.0324

          k =-0.5004-0.2878-0.1645 ( 37888 PWs)   bands (ev):

   -25.4960 -25.4960 -25.4897 -25.4897 -25.2611 -25.2611 -25.2577 -25.2577
   -24.9246 -24.9246 -24.9238 -24.9238 -24.7455 -24.7455 -24.7068 -24.7068
   -24.6972 -24.6972 -24.6825 -24.6825 -24.6816 -24.6816 -24.6391 -24.6391
   -24.6352 -24.6352 -23.7395 -23.7395 -23.6851 -23.6851 -23.6578 -23.6578
   -23.5179 -23.5179 -23.5124 -23.5124 -23.3598 -23.3598 -23.3584 -23.3584
   -23.2667 -23.2667 -23.2629 -23.2629 -23.2426 -23.2426 -23.2317 -23.2317
   -23.2118 -23.2118 -23.2038 -23.2038 -13.1456 -13.1456 -13.1279 -13.1279
   -12.7971 -12.7971 -12.7840 -12.7840 -12.0965 -12.0965 -12.0941 -12.0941
   -10.9823 -10.9822 -10.9749 -10.9749  -9.4977  -9.4977  -9.4807  -9.4807
    -8.8457  -8.8457  -8.7435  -8.7435  -8.7085  -8.7085  -7.9578  -7.9578
    -7.9250  -7.9250  -7.8150  -7.8150  -7.8076  -7.8076  -7.6768  -7.6768
    -7.6288  -7.6288  -7.4768  -7.4768  -7.4027  -7.4027  -7.3836  -7.3836
    -7.2183  -7.2183  -7.1739  -7.1739  -6.9014  -6.9014  -6.8891  -6.8891
    -6.8796  -6.8796  -6.8750  -6.8750  -6.7956  -6.7956  -6.7833  -6.7833
    -6.6234  -6.6234  -6.4569  -6.4569  -6.4361  -6.4361  -6.4125  -6.4125
    -6.1892  -6.1892  -6.1601  -6.1601  -5.9934  -5.9934  -5.9734  -5.9734
    -5.9244  -5.9244  -4.2737  -4.2737  -4.2639  -4.2639  -4.1629  -4.1629
    -4.1550  -4.1550  -4.1310  -4.1310  -4.1150  -4.1150  -3.9630  -3.9630
    -3.8973  -3.8973  -3.8904  -3.8904  -3.7526  -3.7526  -3.6760  -3.6759
    -3.6677  -3.6677  -3.6355  -3.6355  -3.6124  -3.6124  -3.5784  -3.5784
    -3.5555  -3.5555  -3.5510  -3.5510  -3.3730  -3.3730  -3.3695  -3.3695
    -3.2668  -3.2668  -3.2249  -3.2249  -3.1942  -3.1942  -3.1849  -3.1849
    -3.1204  -3.1204  -3.0510  -3.0510  -3.0025  -3.0025  -2.6605  -2.6605
    -2.6483  -2.6483  -2.6220  -2.6220  -2.6176  -2.6176  -2.5732  -2.5732
    -2.5684  -2.5684  -2.5602  -2.5602  -2.5366  -2.5366  -2.5228  -2.5228
    -2.5111  -2.5111  -2.4553  -2.4553  -2.4278  -2.4278  -2.4066  -2.4066
    -2.3820  -2.3820  -2.3795  -2.3795  -2.3453  -2.3453  -2.3425  -2.3425
    -2.2890  -2.2890  -2.2776  -2.2776  -2.1324  -2.1324  -2.1260  -2.1260
    -1.5090  -1.5090  -1.4984  -1.4984  -0.4508  -0.4508  -0.4285  -0.4285
     0.2251   0.2251

     highest occupied level (ev):     0.2252

!    total energy              =   -3566.25800504 Ry
     total all-electron energy =    -12369.586036 Ry
     estimated scf accuracy    <       0.00000007 Ry

     The total energy is the sum of the following terms:
     one-electron contribution =   -2070.18222743 Ry
     hartree contribution      =    1264.71974824 Ry
     xc contribution           =    -615.82977770 Ry
     ewald contribution        =   -1402.97191337 Ry
     DFT-D3 Dispersion         =      -0.24380698 Ry
     one-center paw contrib.   =    -741.75002780 Ry

     convergence has been achieved in   4 iterations

     Forces acting on atoms (cartesian axes, Ry/au):

     atom    1 type  2   force =    -0.00001942    0.00002235   -0.00000468
     atom    2 type  2   force =    -0.00001942   -0.00002235    0.00000468
     atom    3 type  2   force =    -0.00014806    0.00003413    0.00001466
     atom    4 type  2   force =    -0.00000376    0.00015935    0.00011735
     atom    5 type  2   force =    -0.00001191    0.00009861   -0.00009178
     atom    6 type  2   force =     0.00004631   -0.00009266    0.00002550
     atom    7 type  2   force =    -0.00010067    0.00006947   -0.00011603
     atom    8 type  2   force =     0.00013127    0.00001825   -0.00006354
     atom    9 type  2   force =     0.00000505    0.00014934   -0.00002016
     atom   10 type  2   force =     0.00011292   -0.00009813    0.00001841
     atom   11 type  2   force =    -0.00000066    0.00027068   -0.00003240
     atom   12 type  2   force =     0.00015659    0.00000188    0.00005581
     atom   13 type  2   force =     0.00004477    0.00015291   -0.00004600
     atom   14 type  2   force =    -0.00002188   -0.00011691    0.00003434
     atom   15 type  2   force =    -0.00002188    0.00011691   -0.00003434
     atom   16 type  2   force =     0.00004477   -0.00015291    0.00004600
     atom   17 type  2   force =     0.00015659   -0.00000188   -0.00005581
     atom   18 type  2   force =    -0.00000066   -0.00027068    0.00003240
     atom   19 type  2   force =     0.00011292    0.00009813   -0.00001841
     atom   20 type  2   force =     0.00000505   -0.00014934    0.00002016
     atom   21 type  2   force =     0.00013127   -0.00001825    0.00006354
     atom   22 type  2   force =    -0.00010067   -0.00006947    0.00011603
     atom   23 type  2   force =     0.00004631    0.00009266   -0.00002550
     atom   24 type  2   force =    -0.00001191   -0.00009861    0.00009178
     atom   25 type  2   force =    -0.00000376   -0.00015935   -0.00011735
     atom   26 type  2   force =    -0.00014806   -0.00003413   -0.00001466
     atom   27 type  2   force =    -0.00001900    0.00002266   -0.00000473
     atom   28 type  2   force =    -0.00001900   -0.00002266    0.00000473
     atom   29 type  2   force =    -0.00014862    0.00003374    0.00001461
     atom   30 type  2   force =    -0.00000419    0.00016002    0.00011742
     atom   31 type  2   force =    -0.00001125    0.00009884   -0.00009192
     atom   32 type  2   force =     0.00004648   -0.00009316    0.00002555
     atom   33 type  2   force =    -0.00010147    0.00006945   -0.00011608
     atom   34 type  2   force =     0.00013123    0.00001893   -0.00006347
     atom   35 type  2   force =     0.00000574    0.00014918   -0.00002019
     atom   36 type  2   force =     0.00011278   -0.00009878    0.00001840
     atom   37 type  2   force =    -0.00000118    0.00027088   -0.00003243
     atom   38 type  2   force =     0.00015684    0.00000254    0.00005591
     atom   39 type  2   force =     0.00004527    0.00015246   -0.00004605
     atom   40 type  2   force =    -0.00002224   -0.00011746    0.00003442
     atom   41 type  2   force =    -0.00002224    0.00011746   -0.00003442
     atom   42 type  2   force =     0.00004527   -0.00015246    0.00004605
     atom   43 type  2   force =     0.00015684   -0.00000254   -0.00005591
     atom   44 type  2   force =    -0.00000118   -0.00027088    0.00003243
     atom   45 type  2   force =     0.00011278    0.00009878   -0.00001840
     atom   46 type  2   force =     0.00000574   -0.00014918    0.00002019
     atom   47 type  2   force =     0.00013123   -0.00001893    0.00006347
     atom   48 type  2   force =    -0.00010147   -0.00006945    0.00011608
     atom   49 type  2   force =     0.00004648    0.00009316   -0.00002555
     atom   50 type  2   force =    -0.00001125   -0.00009884    0.00009192
     atom   51 type  2   force =    -0.00000419   -0.00016002   -0.00011742
     atom   52 type  2   force =    -0.00014862   -0.00003374   -0.00001461
     atom   53 type  1   force =    -0.00012846    0.00000000    0.00000000
     atom   54 type  1   force =    -0.00002608    0.00004173    0.00003132
     atom   55 type  1   force =     0.00000806   -0.00002049   -0.00001673
     atom   56 type  1   force =    -0.00002722   -0.00002887   -0.00004084
     atom   57 type  1   force =    -0.00001946    0.00002329   -0.00000340
     atom   58 type  1   force =    -0.00000277    0.00005998    0.00000307
     atom   59 type  1   force =    -0.00005879   -0.00002029    0.00000555
     atom   60 type  1   force =    -0.00005879    0.00002029   -0.00000555
     atom   61 type  1   force =    -0.00000277   -0.00005998   -0.00000307
     atom   62 type  1   force =    -0.00001946   -0.00002329    0.00000340
     atom   63 type  1   force =    -0.00002722    0.00002887    0.00004084
     atom   64 type  1   force =     0.00000806    0.00002049    0.00001673
     atom   65 type  1   force =    -0.00002608   -0.00004173   -0.00003132
     atom   66 type  1   force =    -0.00012990    0.00000000    0.00000000
     atom   67 type  1   force =    -0.00002431    0.00004119    0.00003122
     atom   68 type  1   force =     0.00000648   -0.00001978   -0.00001668
     atom   69 type  1   force =    -0.00002590   -0.00003013   -0.00004092
     atom   70 type  1   force =    -0.00002043    0.00002474   -0.00000330
     atom   71 type  1   force =    -0.00000219    0.00005838    0.00000293
     atom   72 type  1   force =    -0.00005913   -0.00001851    0.00000575
     atom   73 type  1   force =    -0.00005913    0.00001851   -0.00000575
     atom   74 type  1   force =    -0.00000219   -0.00005838   -0.00000293
     atom   75 type  1   force =    -0.00002043   -0.00002474    0.00000330
     atom   76 type  1   force =    -0.00002590    0.00003013    0.00004092
     atom   77 type  1   force =     0.00000648    0.00001978    0.00001668
     atom   78 type  1   force =    -0.00002431   -0.00004119   -0.00003122

     Total force =     0.001196     Total SCF correction =     0.000932
     SCF correction compared to forces is large: reduce conv_thr to get better values


     Computing stress (Cartesian axis) and pressure

          total   stress  (Ry/bohr**3)                   (kbar)     P=        0.08
   0.00000096   0.00000000   0.00000000            0.14        0.00        0.00
   0.00000000   0.00000090   0.00000046            0.00        0.13        0.07
   0.00000000   0.00000046  -0.00000031            0.00        0.07       -0.05


     BFGS Geometry Optimization
     Energy error            =      1.8E-06 Ry
     Gradient error          =      2.7E-04 Ry/Bohr
     Cell gradient error     =      1.4E-01 kbar

     number of scf cycles    =   1
     number of bfgs steps    =   0

     enthalpy           new  =   -3566.2580050392 Ry

     new trust radius        =       0.0004060963 bohr
     new conv_thr            =       0.0000010000 Ry

     new unit-cell volume =   6445.92923 a.u.^3 (   955.18816 Ang^3 )
     density =      2.26031 g/cm^3

CELL_PARAMETERS (alat= 10.74309302)
   0.999156840   0.000000000   0.000000000
   0.000000000   1.730982880   0.011353840
   0.000000000   0.018944913   3.006000441

ATOMIC_POSITIONS (crystal)
F                0.2139413448        0.1124748520        0.9947692792
F                0.2139413448        0.8875251480        0.0052307208
F                0.7443940754        0.9167123343        0.0731102144
F                0.8290121624        0.1361803071        0.0807857001
F                0.2812966498        1.0433063379        0.1473281336
F                0.1025870553        0.8439491871        0.1609991683
F                0.7102299369        0.0041373958        0.2256870198
F                0.9741725195        0.1693103264        0.2347378909
F                0.2823275006        0.9606413534        0.3034504907
F               -0.0403049543        0.8344369989        0.3130236718
F                0.7380078108        0.0739823793        0.3799453660
F                0.0993414717        0.1581146378        0.3882609642
F                0.2251178395        0.8916282385        0.4564239749
F                0.8397073931        0.8611250549        0.4680907244
F                0.8397073931        0.1388749451        0.5319092756
F                0.2251178395        0.1083717615        0.5435760251
F                0.0993414717        0.8418853622        0.6117390358
F                0.7380078108        0.9260176207        0.6200546340
F               -0.0403049543        0.1655630011        0.6869763282
F                0.2823275006        0.0393586466        0.6965495093
F                0.9741725195        0.8306896736        0.7652621091
F                0.7102299369        0.9958626042        0.7743129802
F                0.1025870553        0.1560508129        0.8390008317
F                0.2812966498       -0.0433063379        0.8526718664
F                0.8290121624        0.8638196929        0.9192142999
F                0.7443940754        0.0832876657        0.9268897856
F                0.7139413805        0.6124748685        0.9947693038
F                0.7139413805        0.3875251315        0.0052306962
F                0.2443941572        0.4167122459        0.0731102086
F                0.3290121265        0.6361802468        0.0807857269
F                0.7812967278        0.5433063036        0.1473281532
F                0.6025871601        0.3439491238        0.1609991771
F                0.2102299393        0.5041373074        0.2256870069
F                0.4741724813        0.6693102828        0.2347378834
F                0.7823275087        0.4606412848        0.3034504884
F                0.4596950021        0.3344369517        0.3130236998
F                0.2380078104        0.5739824236        0.3799453545
F                0.5993415383        0.6581146332        0.3882609450
F                0.7251178159        0.3916282083        0.4564239691
F                0.3397073178        0.3611250705        0.4680907174
F                0.3397073178        0.6388749295        0.5319092826
F                0.7251178159        0.6083717917        0.5435760309
F                0.5993415383        0.3418853668        0.6117390550
F                0.2380078104        0.4260175764        0.6200546455
F                0.4596950021        0.6655630483        0.6869763002
F                0.7823275087        0.5393587152        0.6965495116
F                0.4741724813        0.3306897172        0.7652621166
F                0.2102299393        0.4958626926        0.7743129931
F                0.6025871601        0.6560508762        0.8390008229
F                0.7812967278        0.4566936964        0.8526718468
F                0.3290121265        0.3638197532        0.9192142731
F                0.2443941572        0.5832877541        0.9268897914
C                0.0749120228        0.0000000000        0.0000000000
C                0.9224020244        0.0091500981        0.0769642047
C                0.0686338345        0.9804552047        0.1539756091
C                0.9442098947        0.0322780706        0.2305561238
C                0.0431367005        0.9640110313        0.3078782869
C                0.9708445538        0.0416746517        0.3844410087
C                0.0134855339        0.9557796523        0.4618024265
C                0.0134855339        0.0442203477        0.5381975735
C                0.9708445538        0.9583253483        0.6155589913
C                0.0431367005        0.0359889687        0.6921217131
C                0.9442098947        0.9677219294        0.7694438762
C                0.0686338345        0.0195447953        0.8460243909
C                0.9224020244        0.9908499019        0.9230357953
C                0.5749119982        0.5000000000       -0.0000000000
C                0.4224021406        0.5091500349        0.0769642102
C                0.5686338412        0.4804551652        0.1539756174
C                0.4442099587        0.5322779820        0.2305561222
C                0.5431366509        0.4640110222        0.3078782928
C                0.4708445816        0.5416746192        0.3844410017
C                0.5134855032        0.4557796943        0.4618024255
C                0.5134855032        0.5442203057        0.5381975745
C                0.4708445816        0.4583253808        0.6155589983
C                0.5431366509        0.5359889778        0.6921217072
C                0.4442099587        0.4677220180        0.7694438778
C                0.5686338412        0.5195448348        0.8460243826
C                0.4224021406        0.4908499651        0.9230357898



     Writing config-only to output data dir ./PTFE/PTFE_II_rect_P1_twochains-vcrelax.save/ :
     XML data file
     NEW-OLD atomic charge density approx. for the potential
     New effective cutoffs (rho, wfc):  301.42   50.24

     Check: negative core charge=   -0.000004

     total cpu time spent up to now is     2227.2 secs

     Self-consistent Calculation

     iteration #  1     ecut=    50.00 Ry     beta= 0.50
     Davidson diagonalization with overlap
     ethr =  1.00E-06,  avg # of iterations =  2.0

     Threshold (ethr) on eigenvalues was too large:
     Diagonalizing with lowered threshold

     Davidson diagonalization with overlap
     ethr =  5.80E-11,  avg # of iterations =  3.1

     total cpu time spent up to now is     3131.8 secs

     End of self-consistent calculation

          k = 0.0000 0.0000 0.0000 ( 37727 PWs)   bands (ev):

   -25.5611 -25.5247 -25.4331 -25.4327 -25.4057 -25.3925 -25.1160 -25.1152
   -25.0929 -25.0902 -24.7885 -24.7871 -24.7829 -24.7786 -24.7403 -24.7219
   -24.6896 -24.6894 -24.6644 -24.6636 -24.6380 -24.6374 -24.6353 -24.6309
   -24.6242 -24.6238 -23.7245 -23.7192 -23.6824 -23.6820 -23.5988 -23.5960
   -23.5796 -23.5580 -23.4334 -23.4308 -23.4171 -23.4168 -23.3028 -23.3020
   -23.3013 -23.2987 -23.2624 -23.2547 -23.2546 -23.2542 -23.2531 -23.2518
   -23.2431 -23.2288 -23.2127 -23.2028 -13.2811 -13.1813 -13.0914 -13.0886
   -13.0260 -12.9871 -12.5258 -12.5243 -12.4953 -12.4842 -11.5979 -11.5928
   -11.5728 -11.5706 -10.2535 -10.2486 -10.1728 -10.1717  -8.9601  -8.9519
    -8.7696  -8.7629  -8.7425  -8.7245  -8.5485  -8.5482  -7.9869  -7.9862
    -7.9344  -7.9286  -7.7619  -7.7488  -7.7111  -7.7038  -7.6797  -7.6720
    -7.6405  -7.6326  -7.6156  -7.6105  -7.4793  -7.4783  -7.3348  -7.3163
    -7.2973  -7.2870  -7.2647  -7.1504  -7.1399  -7.1161  -7.0062  -6.9996
    -6.9640  -6.9636  -6.7952  -6.7951  -6.7251  -6.6763  -6.6665  -6.6456
    -6.6057  -6.6016  -6.5931  -6.4555  -6.3725  -6.3619  -6.3183  -6.2540
    -6.2532  -6.2447  -6.2337  -6.2128  -6.2092  -6.1959  -6.1943  -6.1494
    -5.9928  -5.9714  -4.3500  -4.3474  -4.2813  -4.2751  -4.2749  -4.2668
    -4.1814  -4.1702  -4.0831  -4.0828  -4.0787  -4.0682  -4.0342  -4.0339
    -3.9530  -3.9124  -3.8826  -3.8282  -3.7605  -3.6859  -3.6767  -3.6648
    -3.6554  -3.6357  -3.6328  -3.6061  -3.5823  -3.5721  -3.5276  -3.5046
    -3.5037  -3.4217  -3.4175  -3.4110  -3.4083  -3.3922  -3.3920  -3.3467
    -3.3079  -3.3008  -3.2777  -3.2275  -3.2190  -3.1944  -3.1235  -3.0786
    -3.0486  -3.0262  -3.0240  -3.0089  -2.9571  -2.9565  -2.6780  -2.6740
    -2.6675  -2.6625  -2.6322  -2.6260  -2.6229  -2.6229  -2.5890  -2.5887
    -2.5885  -2.5598  -2.5573  -2.5569  -2.5561  -2.5497  -2.5377  -2.5363
    -2.5148  -2.5029  -2.5018  -2.4850  -2.4200  -2.4161  -2.4096  -2.4047
    -2.3888  -2.3791  -2.3554  -2.3534  -2.3398  -2.3398  -2.2909  -2.2806
    -2.2806  -2.2800  -2.2551  -2.2392  -2.1258  -2.1104  -1.8995  -1.8886
    -1.7513  -1.7507  -1.0026  -0.9808  -0.9610  -0.9213  -0.0016  -0.0011
     0.0226   0.0321

          k = 0.0000 0.0011-0.1663 ( 37856 PWs)   bands (ev):

   -25.5280 -25.5279 -25.4954 -25.4890 -25.2936 -25.2836 -25.2604 -25.2569
   -24.9400 -24.9398 -24.9239 -24.9230 -24.7446 -24.7065 -24.6989 -24.6963
   -24.6822 -24.6815 -24.6807 -24.6775 -24.6647 -24.6646 -24.6386 -24.6342
   -24.6148 -24.6135 -23.7391 -23.6986 -23.6842 -23.6577 -23.6370 -23.6362
   -23.5172 -23.5123 -23.4924 -23.4907 -23.3590 -23.3584 -23.3537 -23.3501
   -23.2691 -23.2686 -23.2658 -23.2629 -23.2602 -23.2597 -23.2500 -23.2495
   -23.2431 -23.2323 -23.2116 -23.2027 -13.2332 -13.2331 -13.1462 -13.1292
   -12.8572 -12.8501 -12.7971 -12.7844 -12.1009 -12.1008 -12.0974 -12.0932
   -10.9811 -10.9752 -10.9310 -10.9239  -9.4972  -9.4798  -9.3706  -9.3663
    -8.8445  -8.7431  -8.7064  -8.5787  -8.5779  -8.5459  -7.9714  -7.9706
    -7.9577  -7.9242  -7.9076  -7.9010  -7.8140  -7.8084  -7.6769  -7.6289
    -7.5441  -7.5439  -7.4961  -7.4758  -7.4457  -7.4452  -7.4040  -7.3830
    -7.2154  -7.1756  -7.1129  -7.1041  -7.0854  -6.9387  -6.8996  -6.8921
    -6.8773  -6.8748  -6.8542  -6.8522  -6.8124  -6.8007  -6.7953  -6.7835
    -6.6796  -6.6794  -6.6235  -6.4865  -6.4863  -6.4562  -6.4381  -6.4094
    -6.2923  -6.2853  -6.2453  -6.2452  -6.1910  -6.1652  -5.9928  -5.9715
    -5.9240  -5.9122  -4.3316  -4.3308  -4.2872  -4.2696  -4.2693  -4.2621
    -4.1928  -4.1813  -4.1644  -4.1521  -4.1306  -4.1151  -3.9638  -3.8963
    -3.8913  -3.8596  -3.8595  -3.7654  -3.7652  -3.7531  -3.6762  -3.6745
    -3.6632  -3.6444  -3.6062  -3.5961  -3.5957  -3.5791  -3.5562  -3.5494
    -3.5493  -3.5481  -3.5051  -3.4933  -3.3718  -3.3715  -3.3027  -3.3001
    -3.2682  -3.2263  -3.2222  -3.1939  -3.1855  -3.1645  -3.1193  -3.0802
    -3.0794  -3.0723  -3.0707  -3.0512  -3.0028  -2.9137  -2.6807  -2.6796
    -2.6622  -2.6586  -2.6504  -2.6233  -2.6197  -2.6061  -2.6051  -2.5725
    -2.5704  -2.5670  -2.5639  -2.5601  -2.5582  -2.5558  -2.5340  -2.5272
    -2.5120  -2.5056  -2.4732  -2.4729  -2.4557  -2.4303  -2.4026  -2.3980
    -2.3809  -2.3788  -2.3512  -2.3511  -2.3437  -2.3433  -2.3085  -2.3076
    -2.2883  -2.2777  -2.2088  -2.2081  -2.1308  -2.1270  -1.9833  -1.9743
    -1.5098  -1.4982  -1.4013  -1.4013  -0.4518  -0.4366  -0.4357  -0.4289
     0.1836   0.2244

          k = 0.0000-0.2889 0.0018 ( 37854 PWs)   bands (ev):

   -25.5433 -25.5433 -25.4197 -25.4197 -25.4132 -25.4132 -25.1052 -25.1052
   -25.1027 -25.1027 -24.7862 -24.7862 -24.7827 -24.7827 -24.7132 -24.7131
   -24.7054 -24.7054 -24.6508 -24.6508 -24.6473 -24.6473 -24.6316 -24.6316
   -24.6289 -24.6289 -23.7036 -23.7036 -23.7010 -23.7010 -23.5899 -23.5899
   -23.5782 -23.5782 -23.4269 -23.4269 -23.4234 -23.4234 -23.3027 -23.3027
   -23.2994 -23.2994 -23.2560 -23.2560 -23.2484 -23.2484 -23.2404 -23.2404
   -23.2339 -23.2339 -23.2271 -23.2271 -13.2317 -13.2317 -13.0591 -13.0591
   -13.0388 -13.0388 -12.5112 -12.5112 -12.5043 -12.5043 -11.5858 -11.5858
   -11.5814 -11.5814 -10.2137 -10.2137 -10.2098 -10.2098  -8.8585  -8.8585
    -8.8556  -8.8556  -8.6538  -8.6538  -8.6388  -8.6388  -7.9611  -7.9611
    -7.9568  -7.9568  -7.7178  -7.7178  -7.6930  -7.6930  -7.6844  -7.6844
    -7.6722  -7.6722  -7.5890  -7.5890  -7.5472  -7.5472  -7.3230  -7.3230
    -7.3021  -7.3021  -7.1855  -7.1855  -7.1368  -7.1368  -6.9997  -6.9997
    -6.9825  -6.9825  -6.7290  -6.7290  -6.7190  -6.7190  -6.6275  -6.6275
    -6.6182  -6.6182  -6.5513  -6.5513  -6.3397  -6.3397  -6.2996  -6.2996
    -6.2167  -6.2167  -6.2081  -6.2081  -6.1991  -6.1991  -6.1156  -6.1156
    -6.0936  -6.0936  -4.3122  -4.3122  -4.3021  -4.3021  -4.2474  -4.2474
    -4.2275  -4.2275  -4.0725  -4.0725  -4.0466  -4.0466  -4.0258  -4.0258
    -4.0095  -4.0095  -3.7826  -3.7826  -3.7201  -3.7201  -3.6932  -3.6932
    -3.6383  -3.6383  -3.6181  -3.6181  -3.6060  -3.6060  -3.4737  -3.4737
    -3.4607  -3.4607  -3.4360  -3.4360  -3.4022  -3.4022  -3.3575  -3.3575
    -3.2679  -3.2679  -3.2536  -3.2536  -3.2406  -3.2406  -3.0650  -3.0650
    -3.0395  -3.0395  -3.0324  -3.0324  -2.9816  -2.9816  -2.6743  -2.6743
    -2.6569  -2.6569  -2.6473  -2.6473  -2.6161  -2.6161  -2.5991  -2.5991
    -2.5782  -2.5782  -2.5512  -2.5512  -2.5480  -2.5480  -2.5226  -2.5226
    -2.4993  -2.4993  -2.4641  -2.4641  -2.4619  -2.4619  -2.4206  -2.4206
    -2.3684  -2.3684  -2.3490  -2.3490  -2.3334  -2.3334  -2.3165  -2.3165
    -2.2858  -2.2858  -2.1936  -2.1936  -2.1801  -2.1801  -1.8235  -1.8235
    -1.8104  -1.8104  -0.9807  -0.9807  -0.9468  -0.9468   0.0108   0.0108
     0.0162   0.0162

          k = 0.0000-0.2878-0.1645 ( 37844 PWs)   bands (ev):

   -25.5120 -25.5120 -25.5090 -25.5090 -25.2777 -25.2777 -25.2705 -25.2705
   -24.9329 -24.9329 -24.9310 -24.9310 -24.7198 -24.7198 -24.6881 -24.6881
   -24.6831 -24.6831 -24.6801 -24.6801 -24.6755 -24.6755 -24.6266 -24.6266
   -24.6239 -24.6239 -23.7192 -23.7192 -23.6612 -23.6611 -23.6474 -23.6474
   -23.5059 -23.5059 -23.5021 -23.5021 -23.3573 -23.3573 -23.3540 -23.3539
   -23.2671 -23.2671 -23.2643 -23.2643 -23.2490 -23.2490 -23.2448 -23.2448
   -23.2324 -23.2323 -23.2264 -23.2264 -13.1902 -13.1902 -13.1816 -13.1816
   -12.8244 -12.8244 -12.8214 -12.8214 -12.0998 -12.0998 -12.0966 -12.0966
   -10.9563 -10.9563 -10.9495 -10.9495  -9.4340  -9.4340  -9.4222  -9.4222
    -8.7124  -8.7124  -8.6478  -8.6478  -8.6407  -8.6407  -7.9629  -7.9629
    -7.9482  -7.9482  -7.8623  -7.8623  -7.8559  -7.8559  -7.6219  -7.6219
    -7.5686  -7.5686  -7.4911  -7.4911  -7.4495  -7.4495  -7.4261  -7.4261
    -7.1826  -7.1826  -7.1470  -7.1470  -6.9620  -6.9619  -6.9146  -6.9146
    -6.8702  -6.8702  -6.8575  -6.8575  -6.8026  -6.8026  -6.7966  -6.7966
    -6.6343  -6.6343  -6.5606  -6.5606  -6.4630  -6.4630  -6.4462  -6.4462
    -6.2356  -6.2356  -6.2311  -6.2311  -6.1262  -6.1262  -6.0996  -6.0996
    -5.9142  -5.9142  -4.3038  -4.3038  -4.2917  -4.2917  -4.2244  -4.2244
    -4.2097  -4.2097  -4.1823  -4.1823  -4.1572  -4.1572  -3.8937  -3.8937
    -3.8707  -3.8707  -3.8445  -3.8445  -3.7695  -3.7695  -3.6305  -3.6305
    -3.6247  -3.6247  -3.6007  -3.6007  -3.5897  -3.5897  -3.5803  -3.5803
    -3.5304  -3.5304  -3.5137  -3.5137  -3.3494  -3.3494  -3.3337  -3.3337
    -3.2453  -3.2453  -3.1973  -3.1973  -3.1424  -3.1424  -3.1207  -3.1207
    -3.0892  -3.0892  -3.0589  -3.0589  -2.9674  -2.9674  -2.6762  -2.6762
    -2.6676  -2.6676  -2.6376  -2.6376  -2.6161  -2.6161  -2.5932  -2.5932
    -2.5743  -2.5743  -2.5683  -2.5683  -2.5391  -2.5391  -2.5035  -2.5035
    -2.4977  -2.4977  -2.4819  -2.4819  -2.4469  -2.4469  -2.4192  -2.4192
    -2.3870  -2.3870  -2.3631  -2.3631  -2.3169  -2.3169  -2.3000  -2.3000
    -2.2766  -2.2766  -2.2597  -2.2597  -2.0601  -2.0601  -2.0419  -2.0419
    -1.4549  -1.4549  -1.4415  -1.4415  -0.4435  -0.4435  -0.4304  -0.4304
     0.2043   0.2043

          k =-0.5004 0.0000 0.0000 ( 37832 PWs)   bands (ev):

   -25.5245 -25.5245 -25.4021 -25.4021 -25.3963 -25.3963 -25.0927 -25.0927
   -25.0908 -25.0908 -24.7822 -24.7822 -24.7794 -24.7794 -24.7332 -24.7332
   -24.7260 -24.7260 -24.6656 -24.6656 -24.6635 -24.6635 -24.6373 -24.6373
   -24.6372 -24.6372 -23.7222 -23.7222 -23.7211 -23.7211 -23.6012 -23.6012
   -23.5972 -23.5972 -23.4335 -23.4335 -23.4324 -23.4324 -23.3004 -23.3004
   -23.2991 -23.2991 -23.2426 -23.2426 -23.2362 -23.2362 -23.2298 -23.2298
   -23.2178 -23.2177 -23.2127 -23.2127 -13.1801 -13.1801 -13.0141 -13.0141
   -12.9994 -12.9994 -12.4940 -12.4940 -12.4863 -12.4863 -11.5973 -11.5973
   -11.5935 -11.5935 -10.2515 -10.2515 -10.2504 -10.2504  -8.9469  -8.9469
    -8.9378  -8.9378  -8.7645  -8.7645  -8.7329  -8.7329  -7.9329  -7.9329
    -7.9325  -7.9325  -7.7026  -7.7026  -7.6710  -7.6710  -7.6516  -7.6516
    -7.6329  -7.6329  -7.6224  -7.6224  -7.5980  -7.5980  -7.3616  -7.3616
    -7.3533  -7.3533  -7.1231  -7.1231  -7.0917  -7.0917  -7.0159  -7.0159
    -7.0124  -7.0124  -6.6463  -6.6463  -6.6463  -6.6462  -6.5956  -6.5956
    -6.5884  -6.5884  -6.4792  -6.4792  -6.2944  -6.2944  -6.2783  -6.2782
    -6.1912  -6.1912  -6.1879  -6.1879  -6.1315  -6.1315  -6.0318  -6.0318
    -6.0234  -6.0234  -4.2664  -4.2664  -4.2581  -4.2581  -4.1965  -4.1965
    -4.1902  -4.1902  -4.0882  -4.0882  -4.0759  -4.0759  -3.9754  -3.9754
    -3.9231  -3.9231  -3.8604  -3.8604  -3.7584  -3.7584  -3.7443  -3.7443
    -3.7173  -3.7173  -3.6396  -3.6396  -3.6364  -3.6364  -3.4964  -3.4964
    -3.4948  -3.4948  -3.4290  -3.4290  -3.4284  -3.4284  -3.3173  -3.3173
    -3.3009  -3.3009  -3.2976  -3.2976  -3.2766  -3.2766  -3.0962  -3.0962
    -3.0736  -3.0736  -3.0597  -3.0597  -3.0457  -3.0457  -2.6655  -2.6655
    -2.6337  -2.6337  -2.6328  -2.6327  -2.6198  -2.6198  -2.5999  -2.5999
    -2.5798  -2.5798  -2.5509  -2.5509  -2.5490  -2.5490  -2.4906  -2.4906
    -2.4850  -2.4850  -2.4503  -2.4503  -2.4481  -2.4481  -2.4116  -2.4116
    -2.3824  -2.3824  -2.3725  -2.3725  -2.3490  -2.3490  -2.3241  -2.3241
    -2.2793  -2.2793  -2.2588  -2.2588  -2.2510  -2.2510  -1.9031  -1.9031
    -1.8975  -1.8975  -1.0043  -1.0043  -0.9795  -0.9795   0.0256   0.0256
     0.0300   0.0300

          k =-0.5004 0.0011-0.1663 ( 37804 PWs)   bands (ev):

   -25.4937 -25.4936 -25.4905 -25.4905 -25.2608 -25.2608 -25.2570 -25.2570
   -24.9239 -24.9239 -24.9232 -24.9232 -24.7407 -24.7407 -24.7057 -24.7056
   -24.6964 -24.6964 -24.6842 -24.6842 -24.6808 -24.6808 -24.6375 -24.6375
   -24.6364 -24.6364 -23.7391 -23.7391 -23.6789 -23.6789 -23.6650 -23.6650
   -23.5166 -23.5166 -23.5154 -23.5154 -23.3599 -23.3599 -23.3580 -23.3580
   -23.2598 -23.2598 -23.2587 -23.2587 -23.2358 -23.2358 -23.2299 -23.2299
   -23.2175 -23.2175 -23.2119 -23.2119 -13.1414 -13.1414 -13.1318 -13.1318
   -12.7975 -12.7975 -12.7858 -12.7858 -12.0965 -12.0965 -12.0945 -12.0945
   -10.9817 -10.9817 -10.9747 -10.9747  -9.4930  -9.4930  -9.4812  -9.4812
    -8.8058  -8.8058  -8.7664  -8.7664  -8.7268  -8.7268  -7.9485  -7.9485
    -7.9371  -7.9371  -7.8168  -7.8168  -7.8045  -7.8045  -7.6786  -7.6786
    -7.6077  -7.6077  -7.5320  -7.5320  -7.3932  -7.3932  -7.3748  -7.3747
    -7.2150  -7.2150  -7.2061  -7.2061  -6.9031  -6.9031  -6.8980  -6.8980
    -6.8664  -6.8664  -6.8575  -6.8575  -6.7952  -6.7952  -6.7541  -6.7541
    -6.5575  -6.5575  -6.4963  -6.4963  -6.4030  -6.4029  -6.4029  -6.4029
    -6.1789  -6.1789  -6.1622  -6.1622  -6.0302  -6.0302  -6.0254  -6.0254
    -5.9180  -5.9180  -4.2561  -4.2561  -4.2481  -4.2481  -4.1982  -4.1982
    -4.1836  -4.1836  -4.1400  -4.1400  -4.1099  -4.1099  -3.9233  -3.9232
    -3.9188  -3.9188  -3.8624  -3.8624  -3.7763  -3.7763  -3.7238  -3.7238
    -3.6362  -3.6362  -3.6316  -3.6316  -3.5856  -3.5856  -3.5752  -3.5752
    -3.5482  -3.5482  -3.5405  -3.5405  -3.3776  -3.3776  -3.3717  -3.3717
    -3.2668  -3.2668  -3.2200  -3.2200  -3.1963  -3.1963  -3.1698  -3.1698
    -3.0968  -3.0968  -3.0683  -3.0683  -3.0293  -3.0293  -2.6634  -2.6634
    -2.6494  -2.6494  -2.6246  -2.6246  -2.6191  -2.6191  -2.5945  -2.5945
    -2.5764  -2.5764  -2.5693  -2.5693  -2.5184  -2.5184  -2.5065  -2.5065
    -2.4737  -2.4737  -2.4572  -2.4572  -2.4479  -2.4479  -2.4050  -2.4050
    -2.3842  -2.3842  -2.3763  -2.3763  -2.3441  -2.3441  -2.3371  -2.3371
    -2.2872  -2.2872  -2.2762  -2.2762  -2.1435  -2.1435  -2.1352  -2.1352
    -1.5080  -1.5080  -1.5045  -1.5045  -0.4450  -0.4450  -0.4347  -0.4347
     0.2248   0.2248

          k =-0.5004-0.2889 0.0018 ( 37776 PWs)   bands (ev):

   -25.5245 -25.5245 -25.4051 -25.4051 -25.3929 -25.3929 -25.0931 -25.0931
   -25.0899 -25.0899 -24.7822 -24.7822 -24.7793 -24.7793 -24.7407 -24.7407
   -24.7217 -24.7217 -24.6645 -24.6645 -24.6638 -24.6638 -24.6372 -24.6372
   -24.6361 -24.6361 -23.7242 -23.7242 -23.7198 -23.7198 -23.5988 -23.5988
   -23.5959 -23.5959 -23.4325 -23.4325 -23.4318 -23.4318 -23.3024 -23.3024
   -23.2993 -23.2993 -23.2547 -23.2547 -23.2423 -23.2423 -23.2280 -23.2280
   -23.2127 -23.2127 -23.2036 -23.2036 -13.1808 -13.1808 -13.0230 -13.0230
   -12.9895 -12.9895 -12.4963 -12.4963 -12.4832 -12.4832 -11.5974 -11.5974
   -11.5936 -11.5936 -10.2523 -10.2523 -10.2505 -10.2505  -8.9622  -8.9622
    -8.9507  -8.9507  -8.7449  -8.7449  -8.7252  -8.7252  -7.9327  -7.9327
    -7.9304  -7.9304  -7.7113  -7.7113  -7.6718  -7.6718  -7.6407  -7.6407
    -7.6318  -7.6318  -7.6154  -7.6154  -7.6101  -7.6101  -7.3349  -7.3349
    -7.3178  -7.3178  -7.1402  -7.1402  -7.1149  -7.1149  -7.0070  -7.0070
    -6.9987  -6.9987  -6.7250  -6.7250  -6.6652  -6.6652  -6.6044  -6.6044
    -6.5946  -6.5946  -6.4560  -6.4560  -6.3211  -6.3211  -6.2283  -6.2283
    -6.2121  -6.2121  -6.2099  -6.2099  -6.1454  -6.1454  -5.9929  -5.9929
    -5.9731  -5.9731  -4.2794  -4.2794  -4.2692  -4.2692  -4.1810  -4.1810
    -4.1716  -4.1716  -4.0787  -4.0787  -4.0682  -4.0682  -3.9529  -3.9529
    -3.9119  -3.9119  -3.8821  -3.8821  -3.8284  -3.8284  -3.7601  -3.7601
    -3.6771  -3.6771  -3.6543  -3.6543  -3.6065  -3.6065  -3.5070  -3.5070
    -3.5047  -3.5047  -3.4194  -3.4194  -3.4164  -3.4164  -3.3471  -3.3471
    -3.3095  -3.3095  -3.2974  -3.2974  -3.2783  -3.2783  -3.1215  -3.1215
    -3.0770  -3.0770  -3.0514  -3.0514  -3.0086  -3.0086  -2.6638  -2.6638
    -2.6330  -2.6330  -2.6248  -2.6248  -2.6184  -2.6184  -2.5879  -2.5879
    -2.5668  -2.5668  -2.5532  -2.5532  -2.5493  -2.5493  -2.5144  -2.5144
    -2.5016  -2.5016  -2.4833  -2.4833  -2.4124  -2.4124  -2.4038  -2.4038
    -2.3898  -2.3898  -2.3814  -2.3814  -2.3430  -2.3430  -2.3374  -2.3374
    -2.2810  -2.2810  -2.2564  -2.2564  -2.2396  -2.2396  -1.9016  -1.9016
    -1.8873  -1.8873  -1.0027  -1.0027  -0.9805  -0.9805   0.0232   0.0232
     0.0320   0.0320

          k =-0.5004-0.2878-0.1645 ( 37888 PWs)   bands (ev):

   -25.4953 -25.4953 -25.4889 -25.4889 -25.2603 -25.2603 -25.2569 -25.2569
   -24.9238 -24.9238 -24.9230 -24.9230 -24.7448 -24.7448 -24.7062 -24.7062
   -24.6966 -24.6966 -24.6817 -24.6817 -24.6808 -24.6807 -24.6384 -24.6384
   -24.6345 -24.6345 -23.7392 -23.7392 -23.6847 -23.6847 -23.6574 -23.6574
   -23.5175 -23.5175 -23.5120 -23.5120 -23.3596 -23.3596 -23.3580 -23.3580
   -23.2664 -23.2664 -23.2626 -23.2626 -23.2422 -23.2422 -23.2315 -23.2315
   -23.2116 -23.2116 -23.2035 -23.2035 -13.1459 -13.1459 -13.1283 -13.1283
   -12.7973 -12.7973 -12.7843 -12.7843 -12.0966 -12.0966 -12.0941 -12.0941
   -10.9821 -10.9821 -10.9747 -10.9747  -9.4974  -9.4974  -9.4805  -9.4805
    -8.8456  -8.8456  -8.7435  -8.7435  -8.7084  -8.7084  -7.9575  -7.9575
    -7.9247  -7.9247  -7.8148  -7.8148  -7.8073  -7.8073  -7.6767  -7.6767
    -7.6287  -7.6287  -7.4766  -7.4766  -7.4024  -7.4024  -7.3833  -7.3833
    -7.2181  -7.2181  -7.1737  -7.1737  -6.9008  -6.9008  -6.8885  -6.8885
    -6.8792  -6.8792  -6.8746  -6.8746  -6.7952  -6.7952  -6.7832  -6.7832
    -6.6230  -6.6230  -6.4566  -6.4566  -6.4359  -6.4359  -6.4123  -6.4123
    -6.1891  -6.1890  -6.1598  -6.1598  -5.9932  -5.9931  -5.9733  -5.9733
    -5.9237  -5.9237  -4.2737  -4.2737  -4.2638  -4.2638  -4.1628  -4.1628
    -4.1550  -4.1550  -4.1308  -4.1308  -4.1149  -4.1148  -3.9629  -3.9629
    -3.8972  -3.8972  -3.8903  -3.8903  -3.7525  -3.7525  -3.6759  -3.6759
    -3.6678  -3.6678  -3.6354  -3.6354  -3.6124  -3.6124  -3.5783  -3.5783
    -3.5555  -3.5555  -3.5510  -3.5510  -3.3730  -3.3730  -3.3695  -3.3695
    -3.2668  -3.2668  -3.2249  -3.2249  -3.1942  -3.1942  -3.1850  -3.1850
    -3.1204  -3.1204  -3.0509  -3.0509  -3.0026  -3.0026  -2.6607  -2.6607
    -2.6485  -2.6485  -2.6221  -2.6220  -2.6177  -2.6177  -2.5734  -2.5734
    -2.5686  -2.5686  -2.5604  -2.5604  -2.5368  -2.5368  -2.5229  -2.5229
    -2.5113  -2.5113  -2.4555  -2.4555  -2.4280  -2.4280  -2.4068  -2.4068
    -2.3822  -2.3822  -2.3798  -2.3798  -2.3456  -2.3456  -2.3428  -2.3428
    -2.2892  -2.2892  -2.2778  -2.2778  -2.1328  -2.1328  -2.1263  -2.1263
    -1.5094  -1.5094  -1.4989  -1.4989  -0.4513  -0.4513  -0.4289  -0.4289
     0.2247   0.2247

     highest occupied level (ev):     0.2248

!    total energy              =   -3566.25800627 Ry
     total all-electron energy =    -12369.586038 Ry
     estimated scf accuracy    <       0.00000036 Ry

     The total energy is the sum of the following terms:
     one-electron contribution =   -2070.12721723 Ry
     hartree contribution      =    1264.68614106 Ry
     xc contribution           =    -615.82561622 Ry
     ewald contribution        =   -1402.99760766 Ry
     DFT-D3 Dispersion         =      -0.24380172 Ry
     one-center paw contrib.   =    -741.74990451 Ry

     convergence has been achieved in   1 iterations

     Forces acting on atoms (cartesian axes, Ry/au):

     atom    1 type  2   force =    -0.00012421   -0.00008399    0.00000570
     atom    2 type  2   force =    -0.00012421    0.00008399   -0.00000570
     atom    3 type  2   force =     0.00002151    0.00017731    0.00001610
     atom    4 type  2   force =     0.00008472   -0.00010795    0.00009640
     atom    5 type  2   force =    -0.00013006    0.00000220   -0.00005371
     atom    6 type  2   force =     0.00000109    0.00014905   -0.00001889
     atom    7 type  2   force =     0.00013342    0.00008369   -0.00008820
     atom    8 type  2   force =     0.00005771   -0.00008611   -0.00004124
     atom    9 type  2   force =    -0.00006918    0.00010803   -0.00001156
     atom   10 type  2   force =     0.00012657    0.00011867    0.00000543
     atom   11 type  2   force =     0.00016969    0.00014859   -0.00002895
     atom   12 type  2   force =     0.00004123   -0.00010081    0.00004571
     atom   13 type  2   force =    -0.00002603    0.00011679   -0.00002915
     atom   14 type  2   force =     0.00013199    0.00006816    0.00000915
     atom   15 type  2   force =     0.00013199   -0.00006816   -0.00000915
     atom   16 type  2   force =    -0.00002603   -0.00011679    0.00002915
     atom   17 type  2   force =     0.00004123    0.00010081   -0.00004571
     atom   18 type  2   force =     0.00016969   -0.00014859    0.00002895
     atom   19 type  2   force =     0.00012657   -0.00011867   -0.00000543
     atom   20 type  2   force =    -0.00006918   -0.00010803    0.00001156
     atom   21 type  2   force =     0.00005771    0.00008611    0.00004124
     atom   22 type  2   force =     0.00013342   -0.00008369    0.00008820
     atom   23 type  2   force =     0.00000109   -0.00014905    0.00001889
     atom   24 type  2   force =    -0.00013006   -0.00000220    0.00005371
     atom   25 type  2   force =     0.00008472    0.00010795   -0.00009640
     atom   26 type  2   force =     0.00002151   -0.00017731   -0.00001610
     atom   27 type  2   force =    -0.00012502   -0.00008470    0.00000574
     atom   28 type  2   force =    -0.00012502    0.00008470   -0.00000574
     atom   29 type  2   force =     0.00002250    0.00017783    0.00001619
     atom   30 type  2   force =     0.00008547   -0.00010897    0.00009633
     atom   31 type  2   force =    -0.00013127    0.00000188   -0.00005365
     atom   32 type  2   force =     0.00000064    0.00015006   -0.00001895
     atom   33 type  2   force =     0.00013470    0.00008367   -0.00008812
     atom   34 type  2   force =     0.00005787   -0.00008726   -0.00004133
     atom   35 type  2   force =    -0.00007040    0.00010836   -0.00001143
     atom   36 type  2   force =     0.00012675    0.00011990    0.00000534
     atom   37 type  2   force =     0.00017072    0.00014808   -0.00002889
     atom   38 type  2   force =     0.00004084   -0.00010194    0.00004567
     atom   39 type  2   force =    -0.00002691    0.00011764   -0.00002905
     atom   40 type  2   force =     0.00013265    0.00006920    0.00000913
     atom   41 type  2   force =     0.00013265   -0.00006920   -0.00000913
     atom   42 type  2   force =    -0.00002691   -0.00011764    0.00002905
     atom   43 type  2   force =     0.00004084    0.00010194   -0.00004567
     atom   44 type  2   force =     0.00017072   -0.00014808    0.00002889
     atom   45 type  2   force =     0.00012675   -0.00011990   -0.00000534
     atom   46 type  2   force =    -0.00007040   -0.00010836    0.00001143
     atom   47 type  2   force =     0.00005787    0.00008726    0.00004133
     atom   48 type  2   force =     0.00013470   -0.00008367    0.00008812
     atom   49 type  2   force =     0.00000064   -0.00015006    0.00001895
     atom   50 type  2   force =    -0.00013127   -0.00000188    0.00005365
     atom   51 type  2   force =     0.00008547    0.00010897   -0.00009633
     atom   52 type  2   force =     0.00002250   -0.00017783   -0.00001619
     atom   53 type  1   force =    -0.00004326    0.00000000    0.00000000
     atom   54 type  1   force =    -0.00011596    0.00004197    0.00002312
     atom   55 type  1   force =     0.00001420   -0.00005879   -0.00001097
     atom   56 type  1   force =    -0.00007680   -0.00002171   -0.00004126
     atom   57 type  1   force =    -0.00005004   -0.00003335   -0.00000122
     atom   58 type  1   force =    -0.00006729    0.00005857    0.00000032
     atom   59 type  1   force =    -0.00010096   -0.00001793    0.00000161
     atom   60 type  1   force =    -0.00010096    0.00001793   -0.00000161
     atom   61 type  1   force =    -0.00006729   -0.00005857   -0.00000032
     atom   62 type  1   force =    -0.00005004    0.00003335    0.00000122
     atom   63 type  1   force =    -0.00007680    0.00002171    0.00004126
     atom   64 type  1   force =     0.00001420    0.00005879    0.00001097
     atom   65 type  1   force =    -0.00011596   -0.00004197   -0.00002312
     atom   66 type  1   force =    -0.00004228    0.00000000    0.00000000
     atom   67 type  1   force =    -0.00011702    0.00004227    0.00002313
     atom   68 type  1   force =     0.00001519   -0.00005923   -0.00001104
     atom   69 type  1   force =    -0.00007767   -0.00002101   -0.00004124
     atom   70 type  1   force =    -0.00004942   -0.00003426   -0.00000125
     atom   71 type  1   force =    -0.00006763    0.00005956    0.00000040
     atom   72 type  1   force =    -0.00010082   -0.00001903    0.00000153
     atom   73 type  1   force =    -0.00010082    0.00001903   -0.00000153
     atom   74 type  1   force =    -0.00006763   -0.00005956   -0.00000040
     atom   75 type  1   force =    -0.00004942    0.00003426    0.00000125
     atom   76 type  1   force =    -0.00007767    0.00002101    0.00004124
     atom   77 type  1   force =     0.00001519    0.00005923    0.00001104
     atom   78 type  1   force =    -0.00011702   -0.00004227   -0.00002313

     Total force =     0.001221     Total SCF correction =     0.002472
     SCF correction compared to forces is large: reduce conv_thr to get better values


     Computing stress (Cartesian axis) and pressure

          total   stress  (Ry/bohr**3)                   (kbar)     P=       -0.08
  -0.00000043   0.00000000   0.00000000           -0.06        0.00        0.00
   0.00000000  -0.00000067   0.00000041            0.00       -0.10        0.06
   0.00000000   0.00000041  -0.00000055            0.00        0.06       -0.08

     Energy error            =      1.2E-06 Ry
     Gradient error          =      1.8E-04 Ry/Bohr
     Cell gradient error     =      9.9E-02 kbar

     number of scf cycles    =   2
     number of bfgs steps    =   1

     enthalpy           old  =   -3566.2580050392 Ry
     enthalpy           new  =   -3566.2580062722 Ry

     CASE: enthalpy          _new < enthalpy          _old

     new trust radius        =       0.0006290561 bohr
     new conv_thr            =       0.0000000100 Ry

     new unit-cell volume =   6445.94560 a.u.^3 (   955.19059 Ang^3 )
     density =      2.26031 g/cm^3

CELL_PARAMETERS (alat= 10.74309302)
   0.999176517   0.000000000   0.000000000
   0.000000000   1.731000757   0.011402172
   0.000000000   0.019029580   3.005918922

ATOMIC_POSITIONS (crystal)
F                0.2139247393        0.1124709660        0.9947693126
F                0.2139247393        0.8875290340        0.0052306874
F                0.7443777630        0.9167264721        0.0731113883
F                0.8290213330        0.1361847732        0.0807942744
F                0.2812803303        1.0433137601        0.1473222071
F                0.1025930473        0.8439522032        0.1609995160
F                0.7102323734        0.0041480685        0.2256787545
F                0.9741957255        0.1693060473        0.2347336701
F                0.2823202627        0.9606593917        0.3034491364
F               -0.0402762319        0.8344376109        0.3130246505
F                0.7380270508        0.0740119726        0.3799427942
F                0.0993660094        0.1581081043        0.3882650695
F                0.2251205480        0.8916471331        0.4564208631
F                0.8397196506        0.8611209643        0.4680925325
F                0.8397196506        0.1388790357        0.5319074675
F                0.2251205480        0.1083528669        0.5435791369
F                0.0993660094        0.8418918957        0.6117349305
F                0.7380270508        0.9259880274        0.6200572058
F               -0.0402762319        0.1655623891        0.6869753495
F                0.2823202627        0.0393406083        0.6965508636
F                0.9741957255        0.8306939527        0.7652663299
F                0.7102323734        0.9958519315        0.7743212455
F                0.1025930473        0.1560477968        0.8390004840
F                0.2812803303       -0.0433137601        0.8526777929
F                0.8290213330        0.8638152268        0.9192057256
F                0.7443777630        0.0832735279        0.9268886117
F                0.7139247360        0.6124709575        0.9947693368
F                0.7139247360        0.3875290425        0.0052306632
F                0.2443778867        0.4167263904        0.0731113838
F                0.3290213289        0.6361846946        0.0807943016
F                0.7812803539        0.5433137211        0.1473222230
F                0.6025931222        0.3439521696        0.1609995244
[...]
    -6.6557  -6.6556  -6.5830  -6.5830  -6.4836  -6.4836  -6.4688  -6.4688
    -6.2573  -6.2573  -6.2528  -6.2528  -6.1486  -6.1486  -6.1218  -6.1218
    -5.9358  -5.9358  -4.3258  -4.3258  -4.3125  -4.3125  -4.2466  -4.2466
    -4.2311  -4.2311  -4.2043  -4.2043  -4.1802  -4.1802  -3.9156  -3.9156
    -3.8934  -3.8934  -3.8667  -3.8667  -3.7912  -3.7912  -3.6532  -3.6532
    -3.6465  -3.6465  -3.6236  -3.6236  -3.6122  -3.6122  -3.6034  -3.6034
    -3.5535  -3.5535  -3.5358  -3.5358  -3.3714  -3.3714  -3.3545  -3.3545
    -3.2668  -3.2668  -3.2221  -3.2221  -3.1647  -3.1647  -3.1432  -3.1432
    -3.1125  -3.1125  -3.0808  -3.0808  -2.9902  -2.9902  -2.6966  -2.6966
    -2.6877  -2.6877  -2.6589  -2.6589  -2.6397  -2.6397  -2.6152  -2.6152
    -2.5967  -2.5967  -2.5898  -2.5898  -2.5611  -2.5611  -2.5255  -2.5255
    -2.5199  -2.5199  -2.5046  -2.5046  -2.4697  -2.4697  -2.4427  -2.4427
    -2.4090  -2.4090  -2.3860  -2.3860  -2.3396  -2.3396  -2.3220  -2.3220
    -2.3000  -2.3000  -2.2829  -2.2829  -2.0850  -2.0850  -2.0642  -2.0642
    -1.4783  -1.4783  -1.4639  -1.4639  -0.4652  -0.4652  -0.4526  -0.4526
     0.1828   0.1828

          k =-0.4996 0.0000 0.0000 ( 38600 PWs)   bands (ev):

   -25.5470 -25.5470 -25.4246 -25.4246 -25.4188 -25.4188 -25.1156 -25.1156
   -25.1128 -25.1128 -24.8049 -24.8049 -24.8015 -24.8014 -24.7551 -24.7551
   -24.7485 -24.7484 -24.6876 -24.6876 -24.6859 -24.6859 -24.6599 -24.6599
   -24.6593 -24.6593 -23.7442 -23.7442 -23.7428 -23.7428 -23.6221 -23.6221
   -23.6201 -23.6201 -23.4551 -23.4551 -23.4547 -23.4547 -23.3229 -23.3229
   -23.3208 -23.3208 -23.2639 -23.2639 -23.2584 -23.2584 -23.2528 -23.2528
   -23.2405 -23.2405 -23.2356 -23.2355 -13.2030 -13.2030 -13.0369 -13.0368
   -13.0223 -13.0223 -12.5169 -12.5169 -12.5083 -12.5083 -11.6202 -11.6202
   -11.6147 -11.6147 -10.2725 -10.2725 -10.2723 -10.2722  -8.9679  -8.9679
    -8.9585  -8.9585  -8.7851  -8.7851  -8.7548  -8.7548  -7.9560  -7.9560
    -7.9544  -7.9544  -7.7233  -7.7233  -7.6926  -7.6926  -7.6730  -7.6730
    -7.6566  -7.6566  -7.6446  -7.6446  -7.6212  -7.6211  -7.3845  -7.3845
    -7.3737  -7.3737  -7.1471  -7.1471  -7.1140  -7.1140  -7.0382  -7.0382
    -7.0335  -7.0335  -6.6693  -6.6693  -6.6692  -6.6692  -6.6173  -6.6173
    -6.6105  -6.6105  -6.5029  -6.5029  -6.3153  -6.3153  -6.3007  -6.3007
    -6.2124  -6.2124  -6.2110  -6.2110  -6.1534  -6.1534  -6.0554  -6.0554
    -6.0471  -6.0471  -4.2892  -4.2892  -4.2798  -4.2798  -4.2182  -4.2182
    -4.2137  -4.2137  -4.1106  -4.1106  -4.0979  -4.0978  -3.9975  -3.9975
    -3.9452  -3.9452  -3.8805  -3.8805  -3.7796  -3.7796  -3.7668  -3.7668
    -3.7403  -3.7403  -3.6644  -3.6644  -3.6569  -3.6568  -3.5163  -3.5163
    -3.5158  -3.5158  -3.4505  -3.4505  -3.4501  -3.4501  -3.3406  -3.3406
    -3.3251  -3.3251  -3.3195  -3.3195  -3.2980  -3.2980  -3.1180  -3.1180
    -3.0960  -3.0960  -3.0816  -3.0816  -3.0673  -3.0673  -2.6851  -2.6851
    -2.6569  -2.6569  -2.6536  -2.6536  -2.6449  -2.6449  -2.6211  -2.6211
    -2.6025  -2.6025  -2.5727  -2.5727  -2.5719  -2.5719  -2.5136  -2.5136
    -2.5079  -2.5079  -2.4726  -2.4726  -2.4704  -2.4704  -2.4337  -2.4337
    -2.4052  -2.4052  -2.3952  -2.3952  -2.3706  -2.3706  -2.3462  -2.3462
    -2.3012  -2.3012  -2.2806  -2.2806  -2.2740  -2.2740  -1.9248  -1.9248
    -1.9198  -1.9198  -1.0256  -1.0256  -1.0026  -1.0026   0.0034   0.0034
     0.0079   0.0079

          k =-0.4996 0.0013-0.1664 ( 38624 PWs)   bands (ev):

   -25.5161 -25.5161 -25.5131 -25.5131 -25.2832 -25.2832 -25.2795 -25.2795
   -24.9464 -24.9464 -24.9456 -24.9456 -24.7628 -24.7628 -24.7276 -24.7276
   -24.7189 -24.7189 -24.7075 -24.7075 -24.7023 -24.7023 -24.6595 -24.6594
   -24.6590 -24.6590 -23.7609 -23.7609 -23.7004 -23.7004 -23.6870 -23.6870
   -23.5388 -23.5388 -23.5369 -23.5369 -23.3823 -23.3823 -23.3796 -23.3796
   -23.2814 -23.2814 -23.2810 -23.2810 -23.2572 -23.2572 -23.2530 -23.2530
   -23.2401 -23.2401 -23.2349 -23.2349 -13.1633 -13.1633 -13.1557 -13.1557
   -12.8194 -12.8194 -12.8093 -12.8093 -12.1188 -12.1187 -12.1167 -12.1167
   -11.0047 -11.0047 -10.9952 -10.9952  -9.5127  -9.5127  -9.5037  -9.5037
    -8.8264  -8.8264  -8.7870  -8.7870  -8.7488  -8.7488  -7.9703  -7.9703
    -7.9600  -7.9600  -7.8407  -7.8407  -7.8260  -7.8260  -7.6999  -7.6999
    -7.6287  -7.6287  -7.5544  -7.5544  -7.4160  -7.4160  -7.3981  -7.3981
    -7.2373  -7.2373  -7.2269  -7.2269  -6.9247  -6.9247  -6.9196  -6.9195
    -6.8884  -6.8884  -6.8811  -6.8811  -6.8170  -6.8170  -6.7766  -6.7766
    -6.5800  -6.5800  -6.5204  -6.5203  -6.4254  -6.4254  -6.4248  -6.4248
    -6.1998  -6.1998  -6.1857  -6.1857  -6.0537  -6.0537  -6.0491  -6.0491
    -5.9395  -5.9395  -4.2790  -4.2790  -4.2696  -4.2696  -4.2204  -4.2204
    -4.2061  -4.2061  -4.1624  -4.1624  -4.1330  -4.1330  -3.9444  -3.9443
    -3.9408  -3.9408  -3.8839  -3.8839  -3.7967  -3.7967  -3.7456  -3.7456
    -3.6582  -3.6582  -3.6538  -3.6538  -3.6099  -3.6099  -3.5974  -3.5974
    -3.5707  -3.5707  -3.5617  -3.5617  -3.3983  -3.3983  -3.3921  -3.3921
    -3.2890  -3.2890  -3.2447  -3.2447  -3.2175  -3.2174  -3.1922  -3.1922
    -3.1174  -3.1173  -3.0919  -3.0919  -3.0509  -3.0509  -2.6840  -2.6840
    -2.6699  -2.6699  -2.6470  -2.6470  -2.6442  -2.6441  -2.6161  -2.6161
    -2.5989  -2.5989  -2.5916  -2.5915  -2.5409  -2.5409  -2.5292  -2.5292
    -2.4966  -2.4966  -2.4799  -2.4798  -2.4702  -2.4702  -2.4281  -2.4281
    -2.4058  -2.4058  -2.3985  -2.3985  -2.3669  -2.3669  -2.3588  -2.3588
    -2.3088  -2.3088  -2.2992  -2.2992  -2.1666  -2.1666  -2.1563  -2.1563
    -1.5295  -1.5295  -1.5273  -1.5273  -0.4671  -0.4671  -0.4569  -0.4569
     0.2027   0.2028

          k =-0.4996-0.2886 0.0021 ( 38592 PWs)   bands (ev):

   -25.5471 -25.5471 -25.4276 -25.4276 -25.4155 -25.4155 -25.1159 -25.1159
   -25.1121 -25.1121 -24.8048 -24.8048 -24.8014 -24.8014 -24.7625 -24.7625
   -24.7443 -24.7443 -24.6870 -24.6870 -24.6858 -24.6858 -24.6593 -24.6593
   -24.6587 -24.6587 -23.7461 -23.7461 -23.7415 -23.7415 -23.6198 -23.6198
   -23.6188 -23.6188 -23.4545 -23.4545 -23.4537 -23.4537 -23.3249 -23.3249
   -23.3209 -23.3209 -23.2766 -23.2766 -23.2637 -23.2637 -23.2509 -23.2509
   -23.2354 -23.2353 -23.2265 -23.2265 -13.2036 -13.2036 -13.0456 -13.0456
   -13.0125 -13.0125 -12.5191 -12.5191 -12.5053 -12.5053 -11.6203 -11.6203
   -11.6147 -11.6147 -10.2736 -10.2736 -10.2722 -10.2722  -8.9825  -8.9825
    -8.9718  -8.9718  -8.7663  -8.7663  -8.7467  -8.7467  -7.9555  -7.9555
    -7.9525  -7.9525  -7.7320  -7.7319  -7.6934  -7.6934  -7.6638  -7.6638
    -7.6540  -7.6540  -7.6385  -7.6385  -7.6321  -7.6321  -7.3583  -7.3583
    -7.3387  -7.3387  -7.1631  -7.1631  -7.1374  -7.1374  -7.0296  -7.0296
    -7.0197  -7.0197  -6.7467  -6.7467  -6.6878  -6.6878  -6.6264  -6.6264
    -6.6161  -6.6161  -6.4801  -6.4801  -6.3433  -6.3433  -6.2511  -6.2511
    -6.2335  -6.2335  -6.2317  -6.2317  -6.1677  -6.1677  -6.0170  -6.0170
    -5.9970  -5.9970  -4.2999  -4.2999  -4.2925  -4.2925  -4.2053  -4.2053
    -4.1934  -4.1934  -4.1020  -4.1020  -4.0894  -4.0894  -3.9751  -3.9751
    -3.9346  -3.9346  -3.9028  -3.9028  -3.8500  -3.8500  -3.7813  -3.7813
    -3.6971  -3.6971  -3.6778  -3.6778  -3.6307  -3.6307  -3.5285  -3.5285
    -3.5236  -3.5236  -3.4410  -3.4410  -3.4390  -3.4390  -3.3700  -3.3700
    -3.3332  -3.3332  -3.3190  -3.3190  -3.2999  -3.2998  -3.1428  -3.1428
    -3.0993  -3.0993  -3.0737  -3.0737  -3.0313  -3.0313  -2.6832  -2.6832
    -2.6543  -2.6543  -2.6475  -2.6475  -2.6425  -2.6425  -2.6095  -2.6095
    -2.5891  -2.5891  -2.5765  -2.5765  -2.5726  -2.5726  -2.5363  -2.5363
    -2.5240  -2.5240  -2.5057  -2.5057  -2.4346  -2.4346  -2.4264  -2.4264
    -2.4122  -2.4122  -2.4034  -2.4034  -2.3651  -2.3651  -2.3597  -2.3597
    -2.3034  -2.3034  -2.2787  -2.2787  -2.2620  -2.2620  -1.9241  -1.9241
    -1.9091  -1.9091  -1.0241  -1.0241  -1.0036  -1.0036   0.0012   0.0012
     0.0099   0.0099

          k =-0.4996-0.2873-0.1642 ( 38620 PWs)   bands (ev):

   -25.5177 -25.5177 -25.5115 -25.5115 -25.2828 -25.2828 -25.2794 -25.2794
   -24.9462 -24.9462 -24.9454 -24.9454 -24.7667 -24.7667 -24.7286 -24.7286
   -24.7188 -24.7188 -24.7050 -24.7050 -24.7022 -24.7022 -24.6605 -24.6605
   -24.6570 -24.6570 -23.7610 -23.7610 -23.7062 -23.7062 -23.6796 -23.6796
   -23.5396 -23.5396 -23.5338 -23.5338 -23.3820 -23.3819 -23.3796 -23.3796
   -23.2881 -23.2881 -23.2848 -23.2848 -23.2636 -23.2636 -23.2545 -23.2545
   -23.2342 -23.2342 -23.2264 -23.2264 -13.1682 -13.1682 -13.1516 -13.1516
   -12.8192 -12.8192 -12.8078 -12.8078 -12.1188 -12.1188 -12.1164 -12.1164
   -11.0051 -11.0051 -10.9952 -10.9952  -9.5183  -9.5183  -9.5018  -9.5018
    -8.8659  -8.8659  -8.7649  -8.7649  -8.7300  -8.7300  -7.9796  -7.9796
    -7.9470  -7.9470  -7.8386  -7.8386  -7.8287  -7.8287  -7.6980  -7.6980
    -7.6500  -7.6500  -7.4992  -7.4992  -7.4256  -7.4256  -7.4058  -7.4058
    -7.2403  -7.2403  -7.1950  -7.1950  -6.9227  -6.9227  -6.9098  -6.9098
    -6.9016  -6.9016  -6.8972  -6.8972  -6.8166  -6.8166  -6.8061  -6.8061
    -6.6447  -6.6447  -6.4809  -6.4809  -6.4568  -6.4568  -6.4356  -6.4356
    -6.2122  -6.2122  -6.1817  -6.1817  -6.0173  -6.0173  -5.9971  -5.9971
    -5.9452  -5.9451  -4.2939  -4.2939  -4.2873  -4.2873  -4.1870  -4.1870
    -4.1768  -4.1768  -4.1529  -4.1529  -4.1381  -4.1380  -3.9838  -3.9838
    -3.9196  -3.9196  -3.9116  -3.9116  -3.7732  -3.7731  -3.6965  -3.6965
    -3.6880  -3.6880  -3.6588  -3.6588  -3.6366  -3.6366  -3.6019  -3.6019
    -3.5773  -3.5773  -3.5718  -3.5718  -3.3943  -3.3943  -3.3902  -3.3902
    -3.2884  -3.2884  -3.2492  -3.2492  -3.2157  -3.2157  -3.2070  -3.2070
    -3.1412  -3.1412  -3.0740  -3.0740  -3.0252  -3.0252  -2.6807  -2.6807
    -2.6695  -2.6695  -2.6449  -2.6449  -2.6408  -2.6408  -2.5960  -2.5960
    -2.5912  -2.5912  -2.5833  -2.5833  -2.5591  -2.5591  -2.5453  -2.5453
    -2.5334  -2.5334  -2.4780  -2.4780  -2.4502  -2.4502  -2.4295  -2.4295
    -2.4042  -2.4042  -2.4021  -2.4021  -2.3680  -2.3680  -2.3647  -2.3647
    -2.3111  -2.3111  -2.3007  -2.3006  -2.1559  -2.1559  -2.1477  -2.1477
    -1.5311  -1.5311  -1.5215  -1.5215  -0.4733  -0.4732  -0.4512  -0.4512
     0.2027   0.2027

     highest occupied level (ev):     0.2028

!    total energy              =   -3566.25985823 Ry
     total all-electron energy =    -12369.587890 Ry
     estimated scf accuracy    <          1.2E-10 Ry

     The total energy is the sum of the following terms:
     one-electron contribution =   -2078.71638890 Ry
     hartree contribution      =    1268.60137566 Ry
     xc contribution           =    -615.82251473 Ry
     ewald contribution        =   -1398.33260522 Ry
     DFT-D3 Dispersion         =      -0.24303561 Ry
     one-center paw contrib.   =    -741.74668942 Ry

     convergence has been achieved in  14 iterations

     Forces acting on atoms (cartesian axes, Ry/au):

     atom    1 type  2   force =    -0.00006544   -0.00002237   -0.00001633
     atom    2 type  2   force =    -0.00006544    0.00002237    0.00001633
     atom    3 type  2   force =     0.00006140   -0.00002760   -0.00008227
     atom    4 type  2   force =    -0.00000442    0.00002337   -0.00001700
     atom    5 type  2   force =     0.00003945   -0.00007761   -0.00004376
     atom    6 type  2   force =     0.00004632   -0.00000854    0.00007787
     atom    7 type  2   force =    -0.00003636    0.00006353    0.00004526
     atom    8 type  2   force =     0.00001463   -0.00000060    0.00009450
     atom    9 type  2   force =    -0.00002048    0.00009536   -0.00003362
     atom   10 type  2   force =    -0.00007816    0.00009036    0.00001280
     atom   11 type  2   force =     0.00007949   -0.00007943    0.00001761
     atom   12 type  2   force =     0.00006934   -0.00001521    0.00002598
     atom   13 type  2   force =     0.00000329   -0.00003683   -0.00008230
     atom   14 type  2   force =     0.00000778   -0.00003647    0.00004912
     atom   15 type  2   force =     0.00000778    0.00003647   -0.00004912
     atom   16 type  2   force =     0.00000329    0.00003683    0.00008230
     atom   17 type  2   force =     0.00006934    0.00001521   -0.00002598
     atom   18 type  2   force =     0.00007949    0.00007943   -0.00001761
     atom   19 type  2   force =    -0.00007816   -0.00009036   -0.00001280
     atom   20 type  2   force =    -0.00002048   -0.00009536    0.00003362
     atom   21 type  2   force =     0.00001463    0.00000060   -0.00009450
     atom   22 type  2   force =    -0.00003636   -0.00006353   -0.00004526
     atom   23 type  2   force =     0.00004632    0.00000854   -0.00007787
     atom   24 type  2   force =     0.00003945    0.00007761    0.00004376
     atom   25 type  2   force =    -0.00000442   -0.00002337    0.00001700
     atom   26 type  2   force =     0.00006140    0.00002760    0.00008227
     atom   27 type  2   force =    -0.00006537   -0.00002376   -0.00001628
     atom   28 type  2   force =    -0.00006537    0.00002376    0.00001628
     atom   29 type  2   force =     0.00006142   -0.00002609   -0.00008234
     atom   30 type  2   force =    -0.00000500    0.00002192   -0.00001699
     atom   31 type  2   force =     0.00003898   -0.00007912   -0.00004370
     atom   32 type  2   force =     0.00004726   -0.00000731    0.00007785
     atom   33 type  2   force =    -0.00003559    0.00006478    0.00004526
     atom   34 type  2   force =     0.00001346   -0.00000150    0.00009444
     atom   35 type  2   force =    -0.00002161    0.00009436   -0.00003357
     atom   36 type  2   force =    -0.00007684    0.00009095    0.00001283
     atom   37 type  2   force =     0.00008078   -0.00007864    0.00001767
     atom   38 type  2   force =     0.00006788   -0.00001548    0.00002593
     atom   39 type  2   force =     0.00000180   -0.00003740   -0.00008240
     atom   40 type  2   force =     0.00000931   -0.00003674    0.00004911
     atom   41 type  2   force =     0.00000931    0.00003674   -0.00004911
     atom   42 type  2   force =     0.00000180    0.00003740    0.00008240
     atom   43 type  2   force =     0.00006788    0.00001548   -0.00002593
     atom   44 type  2   force =     0.00008078    0.00007864   -0.00001767
     atom   45 type  2   force =    -0.00007684   -0.00009095   -0.00001283
     atom   46 type  2   force =    -0.00002161   -0.00009436    0.00003357
     atom   47 type  2   force =     0.00001346    0.00000150   -0.00009444
     atom   48 type  2   force =    -0.00003559   -0.00006478   -0.00004526
     atom   49 type  2   force =     0.00004726    0.00000731   -0.00007785
     atom   50 type  2   force =     0.00003898    0.00007912    0.00004370
     atom   51 type  2   force =    -0.00000500   -0.00002192    0.00001699
     atom   52 type  2   force =     0.00006142    0.00002609    0.00008234
     atom   53 type  1   force =    -0.00005225    0.00000000    0.00000000
     atom   54 type  1   force =    -0.00007559    0.00003502    0.00000221
     atom   55 type  1   force =     0.00006675   -0.00005574    0.00003100
     atom   56 type  1   force =    -0.00009195    0.00003651    0.00003101
     atom   57 type  1   force =     0.00000159    0.00000142    0.00001964
     atom   58 type  1   force =     0.00002987    0.00002888    0.00001710
     atom   59 type  1   force =    -0.00002133   -0.00009356    0.00001466
     atom   60 type  1   force =    -0.00002133    0.00009356   -0.00001466
     atom   61 type  1   force =     0.00002987   -0.00002888   -0.00001710
     atom   62 type  1   force =     0.00000159   -0.00000142   -0.00001964
     atom   63 type  1   force =    -0.00009195   -0.00003651   -0.00003101
     atom   64 type  1   force =     0.00006675    0.00005574   -0.00003100
     atom   65 type  1   force =    -0.00007559   -0.00003502   -0.00000221
     atom   66 type  1   force =    -0.00004977    0.00000000    0.00000000
     atom   67 type  1   force =    -0.00007781    0.00003558    0.00000219
     atom   68 type  1   force =     0.00006900   -0.00005680    0.00003099
     atom   69 type  1   force =    -0.00009376    0.00003794    0.00003101
     atom   70 type  1   force =     0.00000287   -0.00000048    0.00001967
     atom   71 type  1   force =     0.00002922    0.00003102    0.00001713
     atom   72 type  1   force =    -0.00002118   -0.00009593    0.00001468
     atom   73 type  1   force =    -0.00002118    0.00009593   -0.00001468
     atom   74 type  1   force =     0.00002922   -0.00003102   -0.00001713
     atom   75 type  1   force =     0.00000287    0.00000048   -0.00001967
     atom   76 type  1   force =    -0.00009376   -0.00003794   -0.00003101
     atom   77 type  1   force =     0.00006900    0.00005680   -0.00003099
     atom   78 type  1   force =    -0.00007781   -0.00003558   -0.00000219

     Total force =     0.000768     Total SCF correction =     0.000046


     Computing stress (Cartesian axis) and pressure

          total   stress  (Ry/bohr**3)                   (kbar)     P=       -0.52
  -0.00000297   0.00000000   0.00000000           -0.44        0.00        0.00
   0.00000000  -0.00000286  -0.00000068            0.00       -0.42       -0.10
   0.00000000  -0.00000068  -0.00000472            0.00       -0.10       -0.69


     Writing all to output data dir ./PTFE/PTFE_II_rect_P1_twochains-vcrelax.save/ :
     XML data file, charge density, pseudopotentials, collected wavefunctions

     init_run     :    131.15s CPU    132.38s WALL (       2 calls)
     electrons    :  49408.71s CPU  49661.01s WALL (      23 calls)
     update_pot   :     10.03s CPU     10.24s WALL (      21 calls)
     forces       :   2029.00s CPU   2036.77s WALL (      23 calls)
     force_dftd3  :     59.07s CPU     59.49s WALL (      23 calls)
     stress       :   6365.84s CPU   6380.08s WALL (      23 calls)
     stres_dftd3  :     58.89s CPU     59.32s WALL (      23 calls)

     Called by init_run:
     wfcinit      :    127.53s CPU    128.37s WALL (       2 calls)
     potinit      :      0.92s CPU      0.97s WALL (       2 calls)
     hinit0       :      0.27s CPU      0.29s WALL (       2 calls)

     Called by electrons:
     c_bands      :  46176.00s CPU  46393.70s WALL (     127 calls)
     sum_band     :   3026.79s CPU   3051.34s WALL (     127 calls)
     v_of_rho     :     15.67s CPU     16.53s WALL (     128 calls)
     newd         :    137.95s CPU    148.62s WALL (     128 calls)
     PAW_pot      :     43.53s CPU     43.59s WALL (     149 calls)
     mix_rho      :      2.57s CPU      2.79s WALL (     127 calls)
     energy_dftd3 :     44.33s CPU     44.35s WALL (      23 calls)

     Called by c_bands:
     init_us_2    :    151.32s CPU    151.78s WALL (    2576 calls)
     cegterg      :  46058.41s CPU  46271.66s WALL (    1016 calls)

     Called by *egterg:
     cdiaghg      :    419.59s CPU    431.08s WALL (    3270 calls)
     h_psi        :  16287.83s CPU  16383.10s WALL (    3630 calls)
     s_psi        :   7656.64s CPU   7659.25s WALL (    3630 calls)
     g_psi        :     11.56s CPU     11.61s WALL (    2606 calls)

     Called by h_psi:
     h_psi:calbec :   7153.29s CPU   7159.17s WALL (    3630 calls)
     vloc_psi     :   1437.08s CPU   1503.46s WALL (    3630 calls)
     add_vuspsi   :   7672.81s CPU   7675.61s WALL (    3630 calls)

     General routines
     calbec       :  18000.76s CPU  18012.29s WALL (    7942 calls)
     fft          :     12.05s CPU     13.70s WALL (    2236 calls)
     ffts         :      0.39s CPU      0.44s WALL (     255 calls)
     fftw         :   1168.24s CPU   1219.43s WALL ( 1566770 calls)
     interpolate  :      1.16s CPU      1.28s WALL (     128 calls)

     Parallel routines

     PWSCF        :     16h13m CPU     16h18m WALL


   This run was terminated on:   7:42:51  11Sep2025            

=------------------------------------------------------------------------------=
   JOB DONE.
=------------------------------------------------------------------------------=
